 vasp.6.2.1 16May21 (build Mar 24 2023 06:39:03) complex                        
  
 executed on             LinuxIFC date 2023.04.04  09:29:30
 running on    8 total cores
 distrk:  each k-point on    8 cores,    1 groups
 distr:  one band on NCORE=   2 cores,    4 groups


--------------------------------------------------------------------------------------------------------


 INCAR:
   PREC = Normal
   ENCUT = 400
   EDIFF = 1e-6
   GGA = PE
   ISMEAR = -1
   IBRION = 2
   SIGMA = 0.025
   EDIFFG = -0.03
   NSW = 200
   ALGO = fast
   ENAUG = 644.873
   NELM = 200
   LREAL = Auto
   IVDW = 4
   LWAVE = FALSE
   LCHARG = FALSE
   LPLANE = .TRUE.
   NPAR = 4
   LSCALU = .FALSE.
   NSIM = 1

 POTCAR:    PAW_PBE Pt 04Feb2005                  
 POTCAR:    PAW_PBE C 08Apr2002                   
 POTCAR:    PAW_PBE H 15Jun2001                   
 POTCAR:    PAW_PBE Pt 04Feb2005                  
   VRHFIN =Pt: s1d9                                                                                 
   LEXCH  = PE                                                                                      
   EATOM  =   729.1176 eV,   53.5886 Ry                                                             
                                                                                                    
   TITEL  = PAW_PBE Pt 04Feb2005                                                                    
   LULTRA =        F    use ultrasoft PP ?                                                          
   IUNSCR =        1    unscreen: 0-lin 1-nonlin 2-no                                               
   RPACOR =    2.330    partial core radius                                                         
   POMASS =  195.080; ZVAL   =   10.000    mass and valenz                                          
   RCORE  =    2.600    outmost cutoff radius                                                       
   RWIGS  =    2.750; RWIGS  =    1.455    wigner-seitz radius (au A)                               
   ENMAX  =  230.283; ENMIN  =  172.712 eV                                                          
   ICORE  =        3    local potential                                                             
   LCOR   =        T    correct aug charges                                                         
   LPAW   =        T    paw PP                                                                      
   EAUG   =  358.966                                                                                
   DEXC   =    0.000                                                                                
   RMAX   =    2.658    core radius for proj-oper                                                   
   RAUG   =    1.300    factor for augmentation sphere                                              
   RDEP   =    2.761    radius for radial grids                                                     
   RDEPT  =    2.203    core radius for aug-charge                                                  
                                                                                                    
   Atomic configuration                                                                             
   16 entries                                                                                       
     n  l   j            E        occ.                                                              
     1  0  0.50    -78401.1885   2.0000                                                             
     2  0  0.50    -13770.7750   2.0000                                                             
     2  1  1.50    -11931.0468   6.0000                                                             
     3  0  0.50     -3234.7234   2.0000                                                             
     3  1  1.50     -2699.2216   6.0000                                                             
     3  2  2.50     -2119.5714  10.0000                                                             
     4  0  0.50      -695.1528   2.0000                                                             
     4  1  1.50      -519.6034   6.0000                                                             
     4  2  2.50      -306.6786  10.0000                                                             
     4  3  3.50       -70.1041  14.0000                                                             
     5  0  0.50      -101.7747   2.0000                                                             
     5  1  1.50       -55.9873   6.0000                                                             
     5  2  2.50        -6.1423   9.0000                                                             
     6  0  0.50        -5.6573   1.0000                                                             
     6  1  1.50        -6.8029   0.0000                                                             
     5  3  2.50        -1.3606   0.0000                                                             
   Description                                                                                      
     l       E           TYP  RCUT    TYP  RCUT                                                     
     2     -6.1423404     23  2.500                                                                 
     2     -7.5029230     23  2.500                                                                 
     0     -5.6573207     23  2.500                                                                 
     0      0.7416693     23  2.500                                                                 
     1     -2.7211652     23  2.600                                                                 
     1     20.4087390     23  2.600                                                                 
     3     -1.3605826     23  2.500                                                                 
  local pseudopotential read in
  partial core-charges read in
  partial kinetic energy density read in
  atomic valenz-charges read in
  non local Contribution for L=           2  read in
    real space projection operators read in
  non local Contribution for L=           2  read in
    real space projection operators read in
  non local Contribution for L=           0  read in
    real space projection operators read in
  non local Contribution for L=           0  read in
    real space projection operators read in
  non local Contribution for L=           1  read in
    real space projection operators read in
  non local Contribution for L=           1  read in
    real space projection operators read in
    PAW grid and wavefunctions read in
 
   number of l-projection  operators is LMAX  =           6
   number of lm-projection operators is LMMAX =          18
 
 POTCAR:    PAW_PBE C 08Apr2002                   
   VRHFIN =C: s2p2                                                                                  
   LEXCH  = PE                                                                                      
   EATOM  =   147.1560 eV,   10.8157 Ry                                                             
                                                                                                    
   TITEL  = PAW_PBE C 08Apr2002                                                                     
   LULTRA =        F    use ultrasoft PP ?                                                          
   IUNSCR =        1    unscreen: 0-lin 1-nonlin 2-no                                               
   RPACOR =    1.200    partial core radius                                                         
   POMASS =   12.011; ZVAL   =    4.000    mass and valenz                                          
   RCORE  =    1.500    outmost cutoff radius                                                       
   RWIGS  =    1.630; RWIGS  =    0.863    wigner-seitz radius (au A)                               
   ENMAX  =  400.000; ENMIN  =  300.000 eV                                                          
   ICORE  =        2    local potential                                                             
   LCOR   =        T    correct aug charges                                                         
   LPAW   =        T    paw PP                                                                      
   EAUG   =  644.873                                                                                
   DEXC   =    0.000                                                                                
   RMAX   =    1.529    core radius for proj-oper                                                   
   RAUG   =    1.300    factor for augmentation sphere                                              
   RDEP   =    1.501    radius for radial grids                                                     
   RDEPT  =    1.300    core radius for aug-charge                                                  
                                                                                                    
   Atomic configuration                                                                             
    4 entries                                                                                       
     n  l   j            E        occ.                                                              
     1  0  0.50      -273.3789   2.0000                                                             
     2  0  0.50       -13.7508   2.0000                                                             
     2  1  0.50        -5.2854   2.0000                                                             
     3  2  1.50        -5.4423   0.0000                                                             
   Description                                                                                      
     l       E           TYP  RCUT    TYP  RCUT                                                     
     0    -13.7508458     23  1.200                                                                 
     0     -8.2022199     23  1.200                                                                 
     1     -5.2854383     23  1.500                                                                 
     1     34.0145650     23  1.500                                                                 
     2     -5.4423304      7  1.500                                                                 
  local pseudopotential read in
  partial core-charges read in
  partial kinetic energy density read in
  atomic valenz-charges read in
  non local Contribution for L=           0  read in
    real space projection operators read in
  non local Contribution for L=           0  read in
    real space projection operators read in
  non local Contribution for L=           1  read in
    real space projection operators read in
  non local Contribution for L=           1  read in
    real space projection operators read in
    PAW grid and wavefunctions read in
 
   number of l-projection  operators is LMAX  =           4
   number of lm-projection operators is LMMAX =           8
 
 POTCAR:    PAW_PBE H 15Jun2001                   
   VRHFIN =H: ultrasoft test                                                                        
   LEXCH  = PE                                                                                      
   EATOM  =    12.4884 eV,    0.9179 Ry                                                             
                                                                                                    
   TITEL  = PAW_PBE H 15Jun2001                                                                     
   LULTRA =        F    use ultrasoft PP ?                                                          
   IUNSCR =        0    unscreen: 0-lin 1-nonlin 2-no                                               
   RPACOR =    0.000    partial core radius                                                         
   POMASS =    1.000; ZVAL   =    1.000    mass and valenz                                          
   RCORE  =    1.100    outmost cutoff radius                                                       
   RWIGS  =    0.700; RWIGS  =    0.370    wigner-seitz radius (au A)                               
   ENMAX  =  250.000; ENMIN  =  200.000 eV                                                          
   RCLOC  =    0.701    cutoff for local pot                                                        
   LCOR   =        T    correct aug charges                                                         
   LPAW   =        T    paw PP                                                                      
   EAUG   =  400.000                                                                                
   RMAX   =    1.123    core radius for proj-oper                                                   
   RAUG   =    1.200    factor for augmentation sphere                                              
   RDEP   =    1.112    radius for radial grids                                                     
   RDEPT  =    0.926    core radius for aug-charge                                                  
                                                                                                    
   Atomic configuration                                                                             
    2 entries                                                                                       
     n  l   j            E        occ.                                                              
     1  0  0.50        -6.4927   1.0000                                                             
     2  1  0.50        -3.4015   0.0000                                                             
   Description                                                                                      
     l       E           TYP  RCUT    TYP  RCUT                                                     
     0     -6.4927494     23  1.100                                                                 
     0      6.8029130     23  1.100                                                                 
     1     -4.0817478     23  1.100                                                                 
  local pseudopotential read in
  atomic valenz-charges read in
  non local Contribution for L=           0  read in
    real space projection operators read in
  non local Contribution for L=           0  read in
    real space projection operators read in
  non local Contribution for L=           1  read in
    real space projection operators read in
    PAW grid and wavefunctions read in
 
   number of l-projection  operators is LMAX  =           3
   number of lm-projection operators is LMMAX =           5
 
 Optimization of the real space projectors (new method)

 maximal supplied QI-value         = 14.36
 optimisation between [QCUT,QGAM] = [ 10.20, 20.39] = [ 29.12,116.47] Ry 
 Optimized for a Real-space Cutoff    1.51 Angstroem

   l    n(q)    QCUT    max X(q) W(low)/X(q) W(high)/X(q)  e(spline) 
   2      8    10.197    66.195    0.45E-03    0.45E-03    0.14E-06
   2      8    10.197    64.643    0.46E-03    0.46E-03    0.14E-06
   0      9    10.197    95.520    0.15E-03    0.11E-03    0.54E-07
   0      9    10.197    63.403    0.15E-03    0.11E-03    0.52E-07
   1      9    10.197    19.961    0.13E-03    0.17E-03    0.77E-07
   1      9    10.197    13.289    0.10E-03    0.15E-03    0.67E-07
 Optimization of the real space projectors (new method)

 maximal supplied QI-value         = 25.13
 optimisation between [QCUT,QGAM] = [ 10.05, 20.36] = [ 28.30,116.06] Ry 
 Optimized for a Real-space Cutoff    1.30 Angstroem

   l    n(q)    QCUT    max X(q) W(low)/X(q) W(high)/X(q)  e(spline) 
   0      8    10.053   115.676    0.49E-03    0.72E-03    0.18E-06
   0      8    10.053    87.132    0.49E-03    0.71E-03    0.18E-06
   1      7    10.053     4.429    0.32E-03    0.31E-03    0.18E-06
   1      7    10.053     2.733    0.23E-03    0.19E-03    0.20E-06
 Optimization of the real space projectors (new method)

 maximal supplied QI-value         = 34.20
 optimisation between [QCUT,QGAM] = [  9.92, 20.18] = [ 27.55,114.04] Ry 
 Optimized for a Real-space Cutoff    1.26 Angstroem

   l    n(q)    QCUT    max X(q) W(low)/X(q) W(high)/X(q)  e(spline) 
   0      8     9.919    19.460    0.50E-03    0.23E-03    0.29E-06
   0      8     9.919    12.209    0.48E-03    0.23E-03    0.28E-06
   1      7     9.919     4.655    0.17E-03    0.75E-03    0.30E-06
  PAW_PBE Pt 04Feb2005                  :
 energy of atom  1       EATOM= -729.1176
 kinetic energy error for atom=    0.0056 (will be added to EATOM!!)
  PAW_PBE C 08Apr2002                   :
 energy of atom  2       EATOM= -147.1560
 kinetic energy error for atom=    0.0288 (will be added to EATOM!!)
  PAW_PBE H 15Jun2001                   :
 energy of atom  3       EATOM=  -12.4884
 kinetic energy error for atom=    0.0098 (will be added to EATOM!!)
 
 
 POSCAR: Pt  C  H
  positions in direct lattice
  velocities in cartesian coordinates
 exchange correlation table for  LEXCH =        8
   RHO(1)=    0.500       N(1)  =     2000
   RHO(2)=  100.500       N(2)  =     4000

 VTST: version 4.2, (08/11/21)

 CHAIN: initializing optimizer
 
 OPT: Using VASP Conjugate-Gradient optimizer
 CHAIN: Read ICHAIN            0
 
 POSCAR: Pt  C  H
  positions in direct lattice
  velocities in cartesian coordinates
 


--------------------------------------------------------------------------------------------------------


 ion  position               nearest neighbor table
   1  0.250  0.250  0.358-   2 2.81   3 2.81   3 2.81   2 2.81   7 2.81   8 2.81   5 2.81   6 2.81

   2  0.750  0.250  0.358-   1 2.81   4 2.81   4 2.81   1 2.81   7 2.81   8 2.81   5 2.81   6 2.81

   3  0.250  0.750  0.358-   1 2.81   4 2.81   1 2.81   4 2.81   7 2.81   8 2.81   5 2.81   6 2.81

   4  0.750  0.750  0.358-   2 2.81   3 2.81   2 2.81   3 2.81   7 2.81   8 2.81   5 2.81   6 2.81

   5  0.000  0.000  0.453-  11 2.76  10 2.76   6 2.81   7 2.81   7 2.81   6 2.81   3 2.81   4 2.81
                             1 2.81   2 2.81  12 2.82   9 2.83
   6  0.500  0.000  0.453-  11 2.76  10 2.77  12 2.79   9 2.79   5 2.81   8 2.81   8 2.81   5 2.81
                             1 2.81   2 2.81   3 2.81   4 2.81
   7  0.000  0.500  0.453-  10 2.76  11 2.77   9 2.79  12 2.79   5 2.81   8 2.81   5 2.81   8 2.81
                             1 2.81   2 2.81   3 2.81   4 2.81
   8  0.500  0.500  0.453-   9 2.76  12 2.76  10 2.77  11 2.77   6 2.81   7 2.81   6 2.81   7 2.81
                             1 2.81   2 2.81   3 2.81   4 2.81
   9  0.256  0.256  0.546-  14 2.72  15 2.73   8 2.76  13 2.77  11 2.78  10 2.78   7 2.79   6 2.79
                             5 2.83  10 2.83  11 2.84  16 2.85
  10  0.751  0.249  0.544-  14 2.75  15 2.75  13 2.75   5 2.76   7 2.76   6 2.77   8 2.77  12 2.78
                             9 2.78   9 2.83  12 2.83  16 2.91
  11  0.249  0.751  0.545-  14 2.75  15 2.75  13 2.76   5 2.76   6 2.76   7 2.77   8 2.77   9 2.78
                            12 2.78  12 2.83   9 2.84  16 2.91
  12  0.744  0.745  0.546-  14 2.72  15 2.73   8 2.76  13 2.77  10 2.78  11 2.78   6 2.79   7 2.79
                             5 2.82  11 2.83  10 2.83  16 2.85
  13  0.000  0.001  0.636-  10 2.75  11 2.76   9 2.77  12 2.77  14 2.81  15 2.81  15 2.81  14 2.81

  14  0.500  0.001  0.635-   9 2.72  12 2.72  10 2.75  11 2.75  13 2.81  13 2.81  16 2.82  16 2.82

  15  0.000  0.501  0.635-  12 2.73   9 2.73  11 2.75  10 2.75  13 2.81  13 2.81  16 2.82  16 2.82

  16  0.500  0.501  0.646-  17 1.86  15 2.82  14 2.82  15 2.82  14 2.82  12 2.85   9 2.85  11 2.91
                            10 2.91
  17  0.507  0.500  0.735-  19 1.10  18 1.10  16 1.86
  18  0.407  0.631  0.763-  17 1.10
  19  0.611  0.368  0.762-  17 1.10
 
  LATTYP: Found a simple tetragonal cell.
 ALAT       =     5.6144278426
 C/A-ratio  =     3.7323482619
  
  Lattice vectors:
  
 A1 = (   5.6144278426,   0.0000000000,   0.0000000000)
 A2 = (   0.0000000000,   5.6144278426,   0.0000000000)
 A3 = (   0.0000000000,   0.0000000000,  20.9550000000)


Analysis of symmetry for initial positions (statically):
=====================================================================
 Subroutine PRICEL returns:
 Original cell was already a primitive cell.
 

 Routine SETGRP: Setting up the symmetry group for a 
 simple tetragonal supercell.


 Subroutine GETGRP returns: Found  1 space group operations
 (whereof  1 operations were pure point group operations)
 out of a pool of 16 trial point group operations.


The static configuration has the point symmetry C_1 .


Analysis of symmetry for dynamics (positions and initial velocities):
=====================================================================
 Subroutine PRICEL returns:
 Original cell was already a primitive cell.
 

 Routine SETGRP: Setting up the symmetry group for a 
 simple tetragonal supercell.


 Subroutine GETGRP returns: Found  1 space group operations
 (whereof  1 operations were pure point group operations)
 out of a pool of 16 trial point group operations.


The dynamic configuration has the point symmetry C_1 .


Analysis of constrained symmetry for selective dynamics:
=====================================================================
 Subroutine PRICEL returns:
 Original cell was already a primitive cell.
 

 Routine SETGRP: Setting up the symmetry group for a 
 simple tetragonal supercell.


 Subroutine GETGRP returns: Found  1 space group operations
 (whereof  1 operations were pure point group operations)
 out of a pool of 16 trial point group operations.


The constrained configuration has the point symmetry C_1 .


 Subroutine INISYM returns: Found  1 space group operations
 (whereof  1 operations are pure point group operations),
 and found     1 'primitive' translations


----------------------------------------------------------------------------------------

                                     Primitive cell                                     

  volume of cell :     660.5393

  direct lattice vectors                    reciprocal lattice vectors
     5.614427843  0.000000000  0.000000000     0.178112539  0.000000000  0.000000000
     0.000000000  5.614427843  0.000000000     0.000000000  0.178112539  0.000000000
     0.000000000  0.000000000 20.955000000     0.000000000  0.000000000  0.047721308

  length of vectors
     5.614427843  5.614427843 20.955000000     0.178112539  0.178112539  0.047721308

  position of ions in fractional coordinates (direct lattice)
     0.250000000  0.250000000  0.357909807
     0.750000000  0.250000000  0.357909807
     0.250000000  0.750000000  0.357909807
     0.750000000  0.750000000  0.357909807
     0.000000000  0.000000000  0.452636602
     0.500000000  0.000000000  0.452636602
     0.000000000  0.500000000  0.452636602
     0.500000000  0.500000000  0.452636602
     0.255774014  0.256439454  0.546331016
     0.751305005  0.249494959  0.544490919
     0.249042698  0.751327257  0.544516081
     0.744404211  0.744652741  0.546300178
     0.000008625  0.000730389  0.636015780
     0.499945221  0.000764536  0.635129023
     0.000053156  0.500782859  0.635486284
     0.499960010  0.500880768  0.645866303
     0.506928599  0.499531580  0.734745884
     0.407081416  0.630550803  0.763009434
     0.610915866  0.368087191  0.761732529

  ion indices of the primitive-cell ions
   primitive index   ion index
                 1           1
                 2           2
                 3           3
                 4           4
                 5           5
                 6           6
                 7           7
                 8           8
                 9           9
                10          10
                11          11
                12          12
                13          13
                14          14
                15          15
                16          16
                17          17
                18          18
                19          19

----------------------------------------------------------------------------------------

 
 
 KPOINTS:  Automatic mesh        #Titlle/comment  

Automatic generation of k-mesh.
 Grid dimensions read from file:
 generate k-points for:    5    5    1

 Generating k-lattice:

  Cartesian coordinates                     Fractional coordinates (reciprocal lattice)
     0.035622508  0.000000000  0.000000000     0.200000000  0.000000000  0.000000000
     0.000000000  0.035622508  0.000000000     0.000000000  0.200000000  0.000000000
     0.000000000  0.000000000  0.047721308     0.000000000  0.000000000  1.000000000

  Length of vectors
     0.035622508  0.035622508  0.047721308

  Shift w.r.t. Gamma in fractional coordinates (k-lattice)
     0.000000000  0.000000000  0.000000000

 
 Subroutine IBZKPT returns following result:
 ===========================================
 
 Found     13 irreducible k-points:
 
 Following reciprocal coordinates:
            Coordinates               Weight
  0.000000  0.000000  0.000000      1.000000
  0.200000  0.000000  0.000000      2.000000
  0.000000  0.200000  0.000000      2.000000
  0.400000  0.000000  0.000000      2.000000
  0.000000  0.400000  0.000000      2.000000
  0.200000  0.200000  0.000000      2.000000
 -0.200000  0.200000  0.000000      2.000000
  0.400000  0.200000  0.000000      2.000000
 -0.200000  0.400000  0.000000      2.000000
 -0.400000  0.200000  0.000000      2.000000
  0.200000  0.400000  0.000000      2.000000
  0.400000  0.400000  0.000000      2.000000
 -0.400000  0.400000  0.000000      2.000000
 
 Following cartesian coordinates:
            Coordinates               Weight
  0.000000  0.000000  0.000000      1.000000
  0.035623  0.000000  0.000000      2.000000
  0.000000  0.035623  0.000000      2.000000
  0.071245  0.000000  0.000000      2.000000
  0.000000  0.071245  0.000000      2.000000
  0.035623  0.035623  0.000000      2.000000
 -0.035623  0.035623  0.000000      2.000000
  0.071245  0.035623  0.000000      2.000000
 -0.035623  0.071245  0.000000      2.000000
 -0.071245  0.035623  0.000000      2.000000
  0.035623  0.071245  0.000000      2.000000
  0.071245  0.071245  0.000000      2.000000
 -0.071245  0.071245  0.000000      2.000000
 


--------------------------------------------------------------------------------------------------------




 Dimension of arrays:
   k-points           NKPTS =     13   k-points in BZ     NKDIM =     13   number of bands    NBANDS=    100
   number of dos      NEDOS =    301   number of ions     NIONS =     19
   non local maximal  LDIM  =      6   non local SUM 2l+1 LMDIM =     18
   total plane-waves  NPLWV =  84672
   max r-space proj   IRMAX =   1893   max aug-charges    IRDMAX=   7963
   dimension x,y,z NGX =    28 NGY =   28 NGZ =  108
   dimension x,y,z NGXF=    56 NGYF=   56 NGZF=  216
   support grid    NGXF=    56 NGYF=   56 NGZF=  216
   ions per type =              16   1   2
   NGX,Y,Z   is equivalent  to a cutoff of   8.29,  8.29,  8.57 a.u.
   NGXF,Y,Z  is equivalent  to a cutoff of  16.58, 16.58, 17.14 a.u.

 SYSTEM =  unknown system                          
 POSCAR =  Pt  C  H                                

 Startparameter for this run:
   NWRITE =      2    write-flag & timer
   PREC   = normal    normal or accurate (medium, high low for compatibility)
   ISTART =      0    job   : 0-new  1-cont  2-samecut
   ICHARG =      2    charge: 1-file 2-atom 10-const
   ISPIN  =      1    spin polarized calculation?
   LNONCOLLINEAR =      F non collinear calculations
   LSORBIT =      F    spin-orbit coupling
   INIWAV =      1    electr: 0-lowe 1-rand  2-diag
   LASPH  =      F    aspherical Exc in radial PAW
 Electronic Relaxation 1
   ENCUT  =  400.0 eV  29.40 Ry    5.42 a.u.   9.16  9.16 34.17*2*pi/ulx,y,z
   ENINI  =  400.0     initial cutoff
   ENAUG  =  644.9 eV  augmentation charge cutoff
   NELM   =    200;   NELMIN=  2; NELMDL= -5     # of ELM steps 
   EDIFF  = 0.1E-05   stopping-criterion for ELM
   LREAL  =      T    real-space projection
   NLSPLINE    = F    spline interpolate recip. space projectors
   LCOMPAT=      F    compatible to vasp.4.4
   GGA_COMPAT  = T    GGA compatible to vasp.4.4-vasp.4.6
   LMAXPAW     = -100 max onsite density
   LMAXMIX     =    2 max onsite mixed and CHGCAR
   VOSKOWN=      0    Vosko Wilk Nusair interpolation
   ROPT   =   -0.00050  -0.00050  -0.00050
 Ionic relaxation
   EDIFFG = -.3E-01   stopping-criterion for IOM
   NSW    =    200    number of steps for IOM
   NBLOCK =      1;   KBLOCK =    200    inner block; outer block 
   IBRION =      2    ionic relax: 0-MD 1-quasi-New 2-CG
   NFREE  =      1    steps in history (QN), initial steepest desc. (CG)
   ISIF   =      2    stress and relaxation
   IWAVPR =     11    prediction:  0-non 1-charg 2-wave 3-comb
   ISYM   =      2    0-nonsym 1-usesym 2-fastsym
   LCORR  =      T    Harris-Foulkes like correction to forces

   POTIM  = 0.5000    time-step for ionic-motion
   TEIN   =    0.0    initial temperature
   TEBEG  =    0.0;   TEEND  =   0.0 temperature during run
   SMASS  =  -3.00    Nose mass-parameter (am)
   estimated Nose-frequenzy (Omega)   =  0.10E-29 period in steps = 0.13E+47 mass=  -0.720E-27a.u.
   SCALEE = 1.0000    scale energy and forces
   NPACO  =    256;   APACO  = 16.0  distance and # of slots for P.C.
   PSTRESS=    0.0 pullay stress

  Mass of Ions in am
   POMASS = 195.08 12.01  1.00
  Ionic Valenz
   ZVAL   =  10.00  4.00  1.00
  Atomic Wigner-Seitz radii
   RWIGS  =  -1.00 -1.00 -1.00
  virtual crystal weights 
   VCA    =   1.00  1.00  1.00
   NELECT =     166.0000    total number of electrons
   NUPDOWN=      -1.0000    fix difference up-down

 DOS related values:
   EMIN   =  10.00;   EMAX   =-10.00  energy-range for DOS
   EFERMI =   0.00
   ISMEAR =    -1;   SIGMA  =   0.03  broadening in eV -4-tet -1-fermi 0-gaus

 Electronic relaxation 2 (details)
   IALGO  =     68    algorithm
   LDIAG  =      T    sub-space diagonalisation (order eigenvalues)
   LSUBROT=      F    optimize rotation matrix (better conditioning)
   TURBO    =      0    0=normal 1=particle mesh
   IRESTART =      0    0=no restart 2=restart with 2 vectors
   NREBOOT  =      0    no. of reboots
   NMIN     =      0    reboot dimension
   EREF     =   0.00    reference energy to select bands
   IMIX   =      4    mixing-type and parameters
     AMIX     =   0.40;   BMIX     =  1.00
     AMIX_MAG =   1.60;   BMIX_MAG =  1.00
     AMIN     =   0.10
     WC   =   100.;   INIMIX=   1;  MIXPRE=   1;  MAXMIX= -45

 Intra band minimization:
   WEIMIN = 0.0010     energy-eigenvalue tresh-hold
   EBREAK =  0.25E-08  absolut break condition
   DEPER  =   0.30     relativ break condition  

   TIME   =   0.40     timestep for ELM

  volume/ion in A,a.u.               =      34.77       234.61
  Fermi-wavevector in a.u.,A,eV,Ry     =   1.033105  1.952286 14.521590  1.067307
  Thomas-Fermi vector in A             =   2.167336
 
 Write flags
   LWAVE        =      F    write WAVECAR
   LDOWNSAMPLE  =      F    k-point downsampling of WAVECAR
   LCHARG       =      F    write CHGCAR
   LVTOT        =      F    write LOCPOT, total local potential
   LVHAR        =      F    write LOCPOT, Hartree potential only
   LELF         =      F    write electronic localiz. function (ELF)
   LORBIT       =      0    0 simple, 1 ext, 2 COOP (PROOUT), +10 PAW based schemes


 Dipole corrections
   LMONO  =      F    monopole corrections only (constant potential shift)
   LDIPOL =      F    correct potential (dipole corrections)
   IDIPOL =      0    1-x, 2-y, 3-z, 4-all directions 
   EPSILON=  1.0000000 bulk dielectric constant

 Exchange correlation treatment:
   GGA     =    PE    GGA type
   LEXCH   =     8    internal setting for exchange type
   VOSKOWN=      0    Vosko Wilk Nusair interpolation
   LHFCALC =     F    Hartree Fock is set to
   LHFONE  =     F    Hartree Fock one center treatment
   AEXX    =    0.0000 exact exchange contribution

 Linear response parameters
   LEPSILON=     F    determine dielectric tensor
   LRPA    =     F    only Hartree local field effects (RPA)
   LNABLA  =     F    use nabla operator in PAW spheres
   LVEL    =     F    velocity operator in full k-point grid
   LINTERFAST=   F  fast interpolation
   KINTER  =     0    interpolate to denser k-point grid
   CSHIFT  =0.1000    complex shift for real part using Kramers Kronig
   OMEGAMAX=  -1.0    maximum frequency
   DEG_THRESHOLD= 0.2000000E-02 threshold for treating states as degnerate
   RTIME   =   -0.100 relaxation time in fs
  (WPLASMAI=    0.000 imaginary part of plasma frequency in eV, 0.658/RTIME)
   DFIELD  = 0.0000000 0.0000000 0.0000000 field for delta impulse in time
 
 Orbital magnetization related:
   ORBITALMAG=     F  switch on orbital magnetization
   LCHIMAG   =     F  perturbation theory with respect to B field
   DQ        =  0.001000  dq finite difference perturbation B field
   LLRAUG    =     F  two centre corrections for induced B field



--------------------------------------------------------------------------------------------------------


 conjugate gradient relaxation of ions
   using selective dynamics as specified on POSCAR
 charge density and potential will be updated during run
 non-spin polarized calculation
 RMM-DIIS sequential band-by-band and
  variant of blocked Davidson during initial phase
 perform sub-space diagonalisation
    before iterative eigenvector-optimisation
 modified Broyden-mixing scheme, WC =      100.0
 initial mixing is a Kerker type mixing with AMIX =  0.4000 and BMIX =      1.0000
 Hartree-type preconditioning will be used
 using additional bands           17
 real space projection scheme for non local part
 use partial core corrections
 calculate Harris-corrections to forces 
   (improved forces if not selfconsistent)
 use gradient corrections 
 use of overlap-Matrix (Vanderbilt PP)
 Fermi-smearing in eV        SIGMA  =   0.03


--------------------------------------------------------------------------------------------------------


  energy-cutoff  :      400.00
  volume of cell :      660.54
      direct lattice vectors                 reciprocal lattice vectors
     5.614427843  0.000000000  0.000000000     0.178112539  0.000000000  0.000000000
     0.000000000  5.614427843  0.000000000     0.000000000  0.178112539  0.000000000
     0.000000000  0.000000000 20.955000000     0.000000000  0.000000000  0.047721308

  length of vectors
     5.614427843  5.614427843 20.955000000     0.178112539  0.178112539  0.047721308


 
 k-points in units of 2pi/SCALE and weight:  Automatic mesh        #Titlle/comment  
   0.00000000  0.00000000  0.00000000       0.040
   0.03562251  0.00000000  0.00000000       0.080
   0.00000000  0.03562251  0.00000000       0.080
   0.07124502  0.00000000  0.00000000       0.080
   0.00000000  0.07124502  0.00000000       0.080
   0.03562251  0.03562251  0.00000000       0.080
  -0.03562251  0.03562251  0.00000000       0.080
   0.07124502  0.03562251  0.00000000       0.080
  -0.03562251  0.07124502  0.00000000       0.080
  -0.07124502  0.03562251  0.00000000       0.080
   0.03562251  0.07124502  0.00000000       0.080
   0.07124502  0.07124502  0.00000000       0.080
  -0.07124502  0.07124502  0.00000000       0.080
 
 k-points in reciprocal lattice and weights:  Automatic mesh        #Titlle/comment  
   0.00000000  0.00000000  0.00000000       0.040
   0.20000000  0.00000000  0.00000000       0.080
   0.00000000  0.20000000  0.00000000       0.080
   0.40000000  0.00000000  0.00000000       0.080
   0.00000000  0.40000000  0.00000000       0.080
   0.20000000  0.20000000  0.00000000       0.080
  -0.20000000  0.20000000  0.00000000       0.080
   0.40000000  0.20000000  0.00000000       0.080
  -0.20000000  0.40000000  0.00000000       0.080
  -0.40000000  0.20000000  0.00000000       0.080
   0.20000000  0.40000000  0.00000000       0.080
   0.40000000  0.40000000  0.00000000       0.080
  -0.40000000  0.40000000  0.00000000       0.080
 
 position of ions in fractional coordinates (direct lattice) 
   0.25000000  0.25000000  0.35790981
   0.75000000  0.25000000  0.35790981
   0.25000000  0.75000000  0.35790981
   0.75000000  0.75000000  0.35790981
   0.00000000  0.00000000  0.45263660
   0.50000000  0.00000000  0.45263660
   0.00000000  0.50000000  0.45263660
   0.50000000  0.50000000  0.45263660
   0.25577401  0.25643945  0.54633102
   0.75130500  0.24949496  0.54449092
   0.24904270  0.75132726  0.54451608
   0.74440421  0.74465274  0.54630018
   0.00000863  0.00073039  0.63601578
   0.49994522  0.00076454  0.63512902
   0.00005316  0.50078286  0.63548628
   0.49996001  0.50088077  0.64586630
   0.50692860  0.49953158  0.73474588
   0.40708142  0.63055080  0.76300943
   0.61091587  0.36808719  0.76173253
 
 position of ions in cartesian coordinates  (Angst):
   1.40360696  1.40360696  7.50000000
   4.21082088  1.40360696  7.50000000
   1.40360696  4.21082088  7.50000000
   4.21082088  4.21082088  7.50000000
   0.00000000  0.00000000  9.48500000
   2.80721392  0.00000000  9.48500000
   0.00000000  2.80721392  9.48500000
   2.80721392  2.80721392  9.48500000
   1.43602474  1.43976081 11.44836644
   4.21814774  1.40077144 11.40980720
   1.39823226  4.21827267 11.41033447
   4.17940373  4.18079908 11.44772024
   0.00004843  0.00410072 13.32771066
   2.80690637  0.00429243 13.30912868
   0.00029844  2.81160922 13.31661508
   2.80698940  2.81215893 13.53412838
   2.84611404  2.80458401 15.39659999
   2.28552924  3.54018199 15.98886269
   3.42994305  2.06659897 15.96210516
 


--------------------------------------------------------------------------------------------------------


 k-point   1 :   0.0000 0.0000 0.0000  plane waves:   11969
 k-point   2 :   0.2000 0.0000 0.0000  plane waves:   11972
 k-point   3 :   0.0000 0.2000 0.0000  plane waves:   11972
 k-point   4 :   0.4000 0.0000 0.0000  plane waves:   12000
 k-point   5 :   0.0000 0.4000 0.0000  plane waves:   12000
 k-point   6 :   0.2000 0.2000 0.0000  plane waves:   11967
 k-point   7 :  -0.2000 0.2000 0.0000  plane waves:   11967
 k-point   8 :   0.4000 0.2000 0.0000  plane waves:   12021
 k-point   9 :  -0.2000 0.4000 0.0000  plane waves:   12021
 k-point  10 :  -0.4000 0.2000 0.0000  plane waves:   12021
 k-point  11 :   0.2000 0.4000 0.0000  plane waves:   12021
 k-point  12 :   0.4000 0.4000 0.0000  plane waves:   11997
 k-point  13 :  -0.4000 0.4000 0.0000  plane waves:   11997

 maximum and minimum number of plane-waves per node :      6031     5955

 maximum number of plane-waves:     12021
 maximum index in each direction: 
   IXMAX=    9   IYMAX=    9   IZMAX=   34
   IXMIN=   -9   IYMIN=   -9   IZMIN=  -34


 real space projection operators:
  total allocation   :       4205.96 KBytes
  max/ min on nodes  :       2105.77       2100.20


 parallel 3D FFT for wavefunctions:
    minimum data exchange during FFTs selected (reduces bandwidth)
 parallel 3D FFT for charge:
    minimum data exchange during FFTs selected (reduces bandwidth)


 total amount of memory used by VASP MPI-rank0    76873. kBytes
=======================================================================

   base      :      30000. kBytes
   nonlr-proj:       3194. kBytes
   fftplans  :       4170. kBytes
   grid      :       7156. kBytes
   one-center:        155. kBytes
   wavefun   :      32198. kBytes
 
     INWAV:  cpu time    0.0000: real time    0.0000
 Broyden mixing: mesh for mixing (old mesh)
   NGX = 19   NGY = 19   NGZ = 69
  (NGX  = 56   NGY  = 56   NGZ  =216)
  gives a total of  24909 points

 initial charge density was supplied:
 charge density of overlapping atoms calculated
 number of electron     166.0000000 magnetization 
 keeping initial charge density in first step


--------------------------------------------------------------------------------------------------------


 Maximum index for non-local projection operator          913
 Maximum index for augmentation-charges          992 (set IRDMAX)


--------------------------------------------------------------------------------------------------------


 First call to EWALD:  gamma=   0.204
 Maximum number of real-space cells 4x 4x 1
 Maximum number of reciprocal cells 2x 2x 6

    FEWALD:  cpu time    0.0016: real time    0.0032


--------------------------------------- Iteration      1(   1)  ---------------------------------------


    POTLOK:  cpu time    0.0595: real time    0.0694
    SETDIJ:  cpu time    0.0130: real time    0.0192
     EDDAV:  cpu time    5.2793: real time    5.3381
       DOS:  cpu time    0.0006: real time    0.0029
    --------------------------------------------
      LOOP:  cpu time    5.3524: real time    5.4296

 eigenvalue-minimisations  :  2640
 total energy-change (2. order) : 0.9865237E+03  (-0.6462822E+04)
 number of electron     166.0000000 magnetization 
 augmentation part      166.0000000 magnetization 

 Free energy of the ion-electron system (eV)
  ---------------------------------------------------
  alpha Z        PSCENC =       388.61070960
  Ewald energy   TEWEN  =     38687.09073143
  -Hartree energ DENC   =    -51212.06359474
  -exchange      EXHF   =         0.00000000
  -V(xc)+E(xc)   XCENC  =        70.71449127
  PAW double counting   =     11250.76666810   -10798.82198233
  entropy T*S    EENTRO =        -0.02228834
  eigenvalues    EBANDS =       762.37329185
  atomic energy  EATOM  =     11837.87571814
  Solvation  Ediel_sol  =         0.00000000
  ---------------------------------------------------
  free energy    TOTEN  =       986.52374497 eV

  energy without entropy =      986.54603331  energy(sigma->0) =      986.53488914


--------------------------------------------------------------------------------------------------------




--------------------------------------- Iteration      1(   2)  ---------------------------------------


     EDDAV:  cpu time    5.8800: real time    5.8976
       DOS:  cpu time    0.0004: real time    0.0004
    --------------------------------------------
      LOOP:  cpu time    5.8804: real time    5.8980

 eigenvalue-minimisations  :  3064
 total energy-change (2. order) :-0.1021508E+04  (-0.9482443E+03)
 number of electron     166.0000000 magnetization 
 augmentation part      166.0000000 magnetization 

 Free energy of the ion-electron system (eV)
  ---------------------------------------------------
  alpha Z        PSCENC =       388.61070960
  Ewald energy   TEWEN  =     38687.09073143
  -Hartree energ DENC   =    -51212.06359474
  -exchange      EXHF   =         0.00000000
  -V(xc)+E(xc)   XCENC  =        70.71449127
  PAW double counting   =     11250.76666810   -10798.82198233
  entropy T*S    EENTRO =        -0.02844313
  eigenvalues    EBANDS =      -259.12892615
  atomic energy  EATOM  =     11837.87571814
  Solvation  Ediel_sol  =         0.00000000
  ---------------------------------------------------
  free energy    TOTEN  =       -34.98462782 eV

  energy without entropy =      -34.95618469  energy(sigma->0) =      -34.97040625


--------------------------------------------------------------------------------------------------------




--------------------------------------- Iteration      1(   3)  ---------------------------------------


     EDDAV:  cpu time    5.9706: real time    5.9843
       DOS:  cpu time    0.0004: real time    0.0004
    --------------------------------------------
      LOOP:  cpu time    5.9710: real time    5.9848

 eigenvalue-minimisations  :  3124
 total energy-change (2. order) :-0.7655990E+02  (-0.6883878E+02)
 number of electron     166.0000000 magnetization 
 augmentation part      166.0000000 magnetization 

 Free energy of the ion-electron system (eV)
  ---------------------------------------------------
  alpha Z        PSCENC =       388.61070960
  Ewald energy   TEWEN  =     38687.09073143
  -Hartree energ DENC   =    -51212.06359474
  -exchange      EXHF   =         0.00000000
  -V(xc)+E(xc)   XCENC  =        70.71449127
  PAW double counting   =     11250.76666810   -10798.82198233
  entropy T*S    EENTRO =        -0.05895011
  eigenvalues    EBANDS =      -335.65831847
  atomic energy  EATOM  =     11837.87571814
  Solvation  Ediel_sol  =         0.00000000
  ---------------------------------------------------
  free energy    TOTEN  =      -111.54452712 eV

  energy without entropy =     -111.48557701  energy(sigma->0) =     -111.51505207


--------------------------------------------------------------------------------------------------------




--------------------------------------- Iteration      1(   4)  ---------------------------------------


     EDDAV:  cpu time    6.3526: real time    6.3697
       DOS:  cpu time    0.0004: real time    0.0004
    --------------------------------------------
      LOOP:  cpu time    6.3531: real time    6.3701

 eigenvalue-minimisations  :  3372
 total energy-change (2. order) :-0.3641673E+01  (-0.3471574E+01)
 number of electron     166.0000000 magnetization 
 augmentation part      166.0000000 magnetization 

 Free energy of the ion-electron system (eV)
  ---------------------------------------------------
  alpha Z        PSCENC =       388.61070960
  Ewald energy   TEWEN  =     38687.09073143
  -Hartree energ DENC   =    -51212.06359474
  -exchange      EXHF   =         0.00000000
  -V(xc)+E(xc)   XCENC  =        70.71449127
  PAW double counting   =     11250.76666810   -10798.82198233
  entropy T*S    EENTRO =        -0.06275836
  eigenvalues    EBANDS =      -339.29618283
  atomic energy  EATOM  =     11837.87571814
  Solvation  Ediel_sol  =         0.00000000
  ---------------------------------------------------
  free energy    TOTEN  =      -115.18619973 eV

  energy without entropy =     -115.12344137  energy(sigma->0) =     -115.15482055


--------------------------------------------------------------------------------------------------------




--------------------------------------- Iteration      1(   5)  ---------------------------------------


     EDDAV:  cpu time    6.3010: real time    6.3156
       DOS:  cpu time    0.0005: real time    0.0005
    CHARGE:  cpu time    0.2536: real time    0.2561
    MIXING:  cpu time    0.0036: real time    0.0051
    --------------------------------------------
      LOOP:  cpu time    6.5587: real time    6.5773

 eigenvalue-minimisations  :  3344
 total energy-change (2. order) :-0.1075630E+00  (-0.1070573E+00)
 number of electron     166.0000003 magnetization 
 augmentation part       46.3959308 magnetization 

 Broyden mixing:
  rms(total) = 0.43212E+01    rms(broyden)= 0.43211E+01
  rms(prec ) = 0.44592E+01
  weight for this iteration     100.00

 Free energy of the ion-electron system (eV)
  ---------------------------------------------------
  alpha Z        PSCENC =       388.61070960
  Ewald energy   TEWEN  =     38687.09073143
  -Hartree energ DENC   =    -51212.06359474
  -exchange      EXHF   =         0.00000000
  -V(xc)+E(xc)   XCENC  =        70.71449127
  PAW double counting   =     11250.76666810   -10798.82198233
  entropy T*S    EENTRO =        -0.06266985
  eigenvalues    EBANDS =      -339.40383431
  atomic energy  EATOM  =     11837.87571814
  Solvation  Ediel_sol  =         0.00000000
  ---------------------------------------------------
  free energy    TOTEN  =      -115.29376270 eV

  energy without entropy =     -115.23109285  energy(sigma->0) =     -115.26242777


--------------------------------------------------------------------------------------------------------




--------------------------------------- Iteration      1(   6)  ---------------------------------------


    POTLOK:  cpu time    0.0526: real time    0.0529
    SETDIJ:  cpu time    0.0092: real time    0.0092
    EDDIAG:  cpu time    0.7623: real time    0.7671
  RMM-DIIS:  cpu time    2.8313: real time    2.8375
    ORTHCH:  cpu time    0.1244: real time    0.1247
       DOS:  cpu time    0.0004: real time    0.0004
    CHARGE:  cpu time    0.2487: real time    0.2492
    MIXING:  cpu time    0.0032: real time    0.0069
    --------------------------------------------
      LOOP:  cpu time    4.0320: real time    4.0479

 eigenvalue-minimisations  :  2613
 total energy-change (2. order) : 0.2389907E+01  (-0.3269239E+01)
 number of electron     166.0000006 magnetization 
 augmentation part       50.1539995 magnetization 

 Broyden mixing:
  rms(total) = 0.35510E+01    rms(broyden)= 0.35508E+01
  rms(prec ) = 0.38070E+01
  weight for this iteration     100.00

 eigenvalues of (default mixing * dielectric matrix)
  average eigenvalue GAMMA=   0.8333
  0.8333

 Free energy of the ion-electron system (eV)
  ---------------------------------------------------
  alpha Z        PSCENC =       388.61070960
  Ewald energy   TEWEN  =     38687.09073143
  -Hartree energ DENC   =    -50976.00244950
  -exchange      EXHF   =         0.00000000
  -V(xc)+E(xc)   XCENC  =        67.53202588
  PAW double counting   =     12424.95665133   -11996.65584256
  entropy T*S    EENTRO =        -0.05904582
  eigenvalues    EBANDS =      -546.25235370
  atomic energy  EATOM  =     11837.87571814
  Solvation  Ediel_sol  =         0.00000000
  ---------------------------------------------------
  free energy    TOTEN  =      -112.90385522 eV

  energy without entropy =     -112.84480939  energy(sigma->0) =     -112.87433230


--------------------------------------------------------------------------------------------------------




--------------------------------------- Iteration      1(   7)  ---------------------------------------


    POTLOK:  cpu time    0.0457: real time    0.0458
    SETDIJ:  cpu time    0.0082: real time    0.0082
    EDDIAG:  cpu time    0.7582: real time    0.7599
  RMM-DIIS:  cpu time    2.8328: real time    2.8390
    ORTHCH:  cpu time    0.1246: real time    0.1252
       DOS:  cpu time    0.0004: real time    0.0004
    CHARGE:  cpu time    0.2509: real time    0.2513
    MIXING:  cpu time    0.0023: real time    0.0023
    --------------------------------------------
      LOOP:  cpu time    4.0231: real time    4.0320

 eigenvalue-minimisations  :  2614
 total energy-change (2. order) : 0.8718618E+00  (-0.1880421E+01)
 number of electron     166.0000006 magnetization 
 augmentation part       48.9214173 magnetization 

 Broyden mixing:
  rms(total) = 0.23980E+01    rms(broyden)= 0.23979E+01
  rms(prec ) = 0.27574E+01
  weight for this iteration     100.00

 eigenvalues of (default mixing * dielectric matrix)
  average eigenvalue GAMMA=   1.0289
  1.6865  0.3713

 Free energy of the ion-electron system (eV)
  ---------------------------------------------------
  alpha Z        PSCENC =       388.61070960
  Ewald energy   TEWEN  =     38687.09073143
  -Hartree energ DENC   =    -51111.48160461
  -exchange      EXHF   =         0.00000000
  -V(xc)+E(xc)   XCENC  =        66.75029667
  PAW double counting   =     13101.51056034   -12678.76126833
  entropy T*S    EENTRO =        -0.04723255
  eigenvalues    EBANDS =      -403.57990408
  atomic energy  EATOM  =     11837.87571814
  Solvation  Ediel_sol  =         0.00000000
  ---------------------------------------------------
  free energy    TOTEN  =      -112.03199339 eV

  energy without entropy =     -111.98476084  energy(sigma->0) =     -112.00837711


--------------------------------------------------------------------------------------------------------




--------------------------------------- Iteration      1(   8)  ---------------------------------------


    POTLOK:  cpu time    0.0482: real time    0.0483
    SETDIJ:  cpu time    0.0081: real time    0.0081
    EDDIAG:  cpu time    0.7666: real time    0.7682
  RMM-DIIS:  cpu time    2.8585: real time    2.8648
    ORTHCH:  cpu time    0.1244: real time    0.1249
       DOS:  cpu time    0.0004: real time    0.0004
    CHARGE:  cpu time    0.2518: real time    0.2522
    MIXING:  cpu time    0.0030: real time    0.0030
    --------------------------------------------
      LOOP:  cpu time    4.0609: real time    4.0698

 eigenvalue-minimisations  :  2612
 total energy-change (2. order) : 0.2834092E+01  (-0.1283529E+01)
 number of electron     166.0000009 magnetization 
 augmentation part       49.7620816 magnetization 

 Broyden mixing:
  rms(total) = 0.19432E+01    rms(broyden)= 0.19431E+01
  rms(prec ) = 0.26327E+01
  weight for this iteration     100.00

 eigenvalues of (default mixing * dielectric matrix)
  average eigenvalue GAMMA=   1.0488
  2.1495  0.6977  0.2992

 Free energy of the ion-electron system (eV)
  ---------------------------------------------------
  alpha Z        PSCENC =       388.61070960
  Ewald energy   TEWEN  =     38687.09073143
  -Hartree energ DENC   =    -51051.95835063
  -exchange      EXHF   =         0.00000000
  -V(xc)+E(xc)   XCENC  =        66.17592283
  PAW double counting   =     13984.22767888   -13571.51614356
  entropy T*S    EENTRO =        -0.04204128
  eigenvalues    EBANDS =      -449.66212702
  atomic energy  EATOM  =     11837.87571814
  Solvation  Ediel_sol  =         0.00000000
  ---------------------------------------------------
  free energy    TOTEN  =      -109.19790162 eV

  energy without entropy =     -109.15586033  energy(sigma->0) =     -109.17688097


--------------------------------------------------------------------------------------------------------




--------------------------------------- Iteration      1(   9)  ---------------------------------------


    POTLOK:  cpu time    0.0490: real time    0.0491
    SETDIJ:  cpu time    0.0090: real time    0.0090
    EDDIAG:  cpu time    0.7565: real time    0.7581
  RMM-DIIS:  cpu time    2.8350: real time    2.8412
    ORTHCH:  cpu time    0.1250: real time    0.1253
       DOS:  cpu time    0.0004: real time    0.0004
    CHARGE:  cpu time    0.2505: real time    0.2511
    MIXING:  cpu time    0.0025: real time    0.0025
    --------------------------------------------
      LOOP:  cpu time    4.0279: real time    4.0368

 eigenvalue-minimisations  :  2617
 total energy-change (2. order) :-0.1454189E+02  (-0.8394137E+00)
 number of electron     166.0000009 magnetization 
 augmentation part       49.5347230 magnetization 

 Broyden mixing:
  rms(total) = 0.31868E+01    rms(broyden)= 0.31868E+01
  rms(prec ) = 0.49214E+01
  weight for this iteration     100.00

 eigenvalues of (default mixing * dielectric matrix)
  average eigenvalue GAMMA=   0.8900
  2.3456  0.7883  0.3032  0.1227

 Free energy of the ion-electron system (eV)
  ---------------------------------------------------
  alpha Z        PSCENC =       388.61070960
  Ewald energy   TEWEN  =     38687.09073143
  -Hartree energ DENC   =    -51068.50782865
  -exchange      EXHF   =         0.00000000
  -V(xc)+E(xc)   XCENC  =        65.98835940
  PAW double counting   =     14327.38878027   -13918.32684759
  entropy T*S    EENTRO =        -0.03669927
  eigenvalues    EBANDS =      -443.82271173
  atomic energy  EATOM  =     11837.87571814
  Solvation  Ediel_sol  =         0.00000000
  ---------------------------------------------------
  free energy    TOTEN  =      -123.73978840 eV

  energy without entropy =     -123.70308913  energy(sigma->0) =     -123.72143876


--------------------------------------------------------------------------------------------------------




--------------------------------------- Iteration      1(  10)  ---------------------------------------


    POTLOK:  cpu time    0.0461: real time    0.0462
    SETDIJ:  cpu time    0.0082: real time    0.0082
    EDDIAG:  cpu time    0.7609: real time    0.7625
  RMM-DIIS:  cpu time    2.8503: real time    2.8565
    ORTHCH:  cpu time    0.1250: real time    0.1251
       DOS:  cpu time    0.0004: real time    0.0004
    CHARGE:  cpu time    0.2508: real time    0.2512
    MIXING:  cpu time    0.0027: real time    0.0028
    --------------------------------------------
      LOOP:  cpu time    4.0444: real time    4.0530

 eigenvalue-minimisations  :  2612
 total energy-change (2. order) : 0.1630051E+02  (-0.4211611E+00)
 number of electron     166.0000005 magnetization 
 augmentation part       50.0075507 magnetization 

 Broyden mixing:
  rms(total) = 0.10632E+01    rms(broyden)= 0.10631E+01
  rms(prec ) = 0.15239E+01
  weight for this iteration     100.00

 eigenvalues of (default mixing * dielectric matrix)
  average eigenvalue GAMMA=   0.7971
  2.1850  0.8761  0.4958  0.2384  0.1901

 Free energy of the ion-electron system (eV)
  ---------------------------------------------------
  alpha Z        PSCENC =       388.61070960
  Ewald energy   TEWEN  =     38687.09073143
  -Hartree energ DENC   =    -51076.15938061
  -exchange      EXHF   =         0.00000000
  -V(xc)+E(xc)   XCENC  =        65.80119813
  PAW double counting   =     14585.55570903   -14179.52616844
  entropy T*S    EENTRO =        -0.06161406
  eigenvalues    EBANDS =      -416.62618225
  atomic energy  EATOM  =     11837.87571814
  Solvation  Ediel_sol  =         0.00000000
  ---------------------------------------------------
  free energy    TOTEN  =      -107.43927903 eV

  energy without entropy =     -107.37766497  energy(sigma->0) =     -107.40847200


--------------------------------------------------------------------------------------------------------




--------------------------------------- Iteration      1(  11)  ---------------------------------------


    POTLOK:  cpu time    0.0463: real time    0.0465
    SETDIJ:  cpu time    0.0081: real time    0.0081
    EDDIAG:  cpu time    0.7636: real time    0.7652
  RMM-DIIS:  cpu time    2.8425: real time    2.8487
    ORTHCH:  cpu time    0.1263: real time    0.1266
       DOS:  cpu time    0.0004: real time    0.0004
    CHARGE:  cpu time    0.2514: real time    0.2517
    MIXING:  cpu time    0.0036: real time    0.0036
    --------------------------------------------
      LOOP:  cpu time    4.0422: real time    4.0509

 eigenvalue-minimisations  :  2616
 total energy-change (2. order) : 0.1188144E+01  (-0.1066809E+00)
 number of electron     166.0000002 magnetization 
 augmentation part       50.0070999 magnetization 

 Broyden mixing:
  rms(total) = 0.56341E+00    rms(broyden)= 0.56336E+00
  rms(prec ) = 0.78828E+00
  weight for this iteration     100.00

 eigenvalues of (default mixing * dielectric matrix)
  average eigenvalue GAMMA=   0.7104
  2.1160  0.9110  0.4445  0.3359  0.2938  0.1614

 Free energy of the ion-electron system (eV)
  ---------------------------------------------------
  alpha Z        PSCENC =       388.61070960
  Ewald energy   TEWEN  =     38687.09073143
  -Hartree energ DENC   =    -51075.36779399
  -exchange      EXHF   =         0.00000000
  -V(xc)+E(xc)   XCENC  =        66.10526140
  PAW double counting   =     14516.14564149   -14108.75884679
  entropy T*S    EENTRO =        -0.06529270
  eigenvalues    EBANDS =      -417.88726377
  atomic energy  EATOM  =     11837.87571814
  Solvation  Ediel_sol  =         0.00000000
  ---------------------------------------------------
  free energy    TOTEN  =      -106.25113520 eV

  energy without entropy =     -106.18584250  energy(sigma->0) =     -106.21848885


--------------------------------------------------------------------------------------------------------




--------------------------------------- Iteration      1(  12)  ---------------------------------------


    POTLOK:  cpu time    0.0499: real time    0.0502
    SETDIJ:  cpu time    0.0091: real time    0.0092
    EDDIAG:  cpu time    0.7601: real time    0.7616
  RMM-DIIS:  cpu time    2.8391: real time    2.8457
    ORTHCH:  cpu time    0.1248: real time    0.1252
       DOS:  cpu time    0.0004: real time    0.0004
    CHARGE:  cpu time    0.2502: real time    0.2506
    MIXING:  cpu time    0.0029: real time    0.0051
    --------------------------------------------
      LOOP:  cpu time    4.0366: real time    4.0479

 eigenvalue-minimisations  :  2613
 total energy-change (2. order) : 0.3666270E+00  (-0.3142782E-01)
 number of electron     166.0000004 magnetization 
 augmentation part       49.9716300 magnetization 

 Broyden mixing:
  rms(total) = 0.23516E+00    rms(broyden)= 0.23513E+00
  rms(prec ) = 0.33857E+00
  weight for this iteration     100.00

 eigenvalues of (default mixing * dielectric matrix)
  average eigenvalue GAMMA=   0.7159
  2.0592  0.9002  0.6462  0.6462  0.3276  0.2631  0.1688

 Free energy of the ion-electron system (eV)
  ---------------------------------------------------
  alpha Z        PSCENC =       388.61070960
  Ewald energy   TEWEN  =     38687.09073143
  -Hartree energ DENC   =    -51078.48056513
  -exchange      EXHF   =         0.00000000
  -V(xc)+E(xc)   XCENC  =        66.21592663
  PAW double counting   =     14485.84721136   -14077.87332318
  entropy T*S    EENTRO =        -0.06620225
  eigenvalues    EBANDS =      -415.10471480
  atomic energy  EATOM  =     11837.87571814
  Solvation  Ediel_sol  =         0.00000000
  ---------------------------------------------------
  free energy    TOTEN  =      -105.88450819 eV

  energy without entropy =     -105.81830594  energy(sigma->0) =     -105.85140707


--------------------------------------------------------------------------------------------------------




--------------------------------------- Iteration      1(  13)  ---------------------------------------


    POTLOK:  cpu time    0.0467: real time    0.0469
    SETDIJ:  cpu time    0.0082: real time    0.0082
    EDDIAG:  cpu time    0.7564: real time    0.7579
  RMM-DIIS:  cpu time    2.8512: real time    2.8577
    ORTHCH:  cpu time    0.1248: real time    0.1251
       DOS:  cpu time    0.0004: real time    0.0004
    CHARGE:  cpu time    0.2499: real time    0.2502
    MIXING:  cpu time    0.0030: real time    0.0030
    --------------------------------------------
      LOOP:  cpu time    4.0406: real time    4.0494

 eigenvalue-minimisations  :  2660
 total energy-change (2. order) : 0.5448455E-01  (-0.1261510E-01)
 number of electron     166.0000004 magnetization 
 augmentation part       49.9004969 magnetization 

 Broyden mixing:
  rms(total) = 0.15056E+00    rms(broyden)= 0.15055E+00
  rms(prec ) = 0.16648E+00
  weight for this iteration     100.00

 eigenvalues of (default mixing * dielectric matrix)
  average eigenvalue GAMMA=   0.7019
  2.0675  0.8579  0.7487  0.7487  0.4436  0.1685  0.2638  0.3164

 Free energy of the ion-electron system (eV)
  ---------------------------------------------------
  alpha Z        PSCENC =       388.61070960
  Ewald energy   TEWEN  =     38687.09073143
  -Hartree energ DENC   =    -51085.74710664
  -exchange      EXHF   =         0.00000000
  -V(xc)+E(xc)   XCENC  =        66.28451493
  PAW double counting   =     14470.26957249   -14061.97506913
  entropy T*S    EENTRO =        -0.06615285
  eigenvalues    EBANDS =      -408.17294161
  atomic energy  EATOM  =     11837.87571814
  Solvation  Ediel_sol  =         0.00000000
  ---------------------------------------------------
  free energy    TOTEN  =      -105.83002364 eV

  energy without entropy =     -105.76387080  energy(sigma->0) =     -105.79694722


--------------------------------------------------------------------------------------------------------




--------------------------------------- Iteration      1(  14)  ---------------------------------------


    POTLOK:  cpu time    0.0466: real time    0.0468
    SETDIJ:  cpu time    0.0080: real time    0.0080
    EDDIAG:  cpu time    0.7605: real time    0.7621
  RMM-DIIS:  cpu time    2.8737: real time    2.8800
    ORTHCH:  cpu time    0.1252: real time    0.1255
       DOS:  cpu time    0.0004: real time    0.0004
    CHARGE:  cpu time    0.2514: real time    0.2518
    MIXING:  cpu time    0.0030: real time    0.0030
    --------------------------------------------
      LOOP:  cpu time    4.0689: real time    4.0777

 eigenvalue-minimisations  :  2640
 total energy-change (2. order) : 0.8681801E-02  (-0.3612545E-02)
 number of electron     166.0000004 magnetization 
 augmentation part       49.8896072 magnetization 

 Broyden mixing:
  rms(total) = 0.95303E-01    rms(broyden)= 0.95300E-01
  rms(prec ) = 0.10933E+00
  weight for this iteration     100.00

 eigenvalues of (default mixing * dielectric matrix)
  average eigenvalue GAMMA=   0.8012
  2.0875  1.2513  1.2513  0.7450  0.7450  0.1685  0.3931  0.2622  0.3067

 Free energy of the ion-electron system (eV)
  ---------------------------------------------------
  alpha Z        PSCENC =       388.61070960
  Ewald energy   TEWEN  =     38687.09073143
  -Hartree energ DENC   =    -51089.52791302
  -exchange      EXHF   =         0.00000000
  -V(xc)+E(xc)   XCENC  =        66.30625504
  PAW double counting   =     14470.04533201   -14061.73027282
  entropy T*S    EENTRO =        -0.06690830
  eigenvalues    EBANDS =      -404.42499391
  atomic energy  EATOM  =     11837.87571814
  Solvation  Ediel_sol  =         0.00000000
  ---------------------------------------------------
  free energy    TOTEN  =      -105.82134184 eV

  energy without entropy =     -105.75443354  energy(sigma->0) =     -105.78788769


--------------------------------------------------------------------------------------------------------




--------------------------------------- Iteration      1(  15)  ---------------------------------------


    POTLOK:  cpu time    0.0464: real time    0.0466
    SETDIJ:  cpu time    0.0081: real time    0.0081
    EDDIAG:  cpu time    0.7578: real time    0.7595
  RMM-DIIS:  cpu time    2.8380: real time    2.8444
    ORTHCH:  cpu time    0.1244: real time    0.1248
       DOS:  cpu time    0.0004: real time    0.0004
    CHARGE:  cpu time    0.2502: real time    0.2505
    MIXING:  cpu time    0.0032: real time    0.0032
    --------------------------------------------
      LOOP:  cpu time    4.0286: real time    4.0375

 eigenvalue-minimisations  :  2643
 total energy-change (2. order) : 0.2624556E-02  (-0.3225579E-02)
 number of electron     166.0000004 magnetization 
 augmentation part       49.8619309 magnetization 

 Broyden mixing:
  rms(total) = 0.10107E+00    rms(broyden)= 0.10107E+00
  rms(prec ) = 0.11504E+00
  weight for this iteration     100.00

 eigenvalues of (default mixing * dielectric matrix)
  average eigenvalue GAMMA=   0.8213
  2.1349  1.7300  1.3509  0.7507  0.7507  0.4502  0.1686  0.2625  0.3075  0.3075

 Free energy of the ion-electron system (eV)
  ---------------------------------------------------
  alpha Z        PSCENC =       388.61070960
  Ewald energy   TEWEN  =     38687.09073143
  -Hartree energ DENC   =    -51097.81049751
  -exchange      EXHF   =         0.00000000
  -V(xc)+E(xc)   XCENC  =        66.38381824
  PAW double counting   =     14467.42274619   -14059.02475356
  entropy T*S    EENTRO =        -0.06619235
  eigenvalues    EBANDS =      -396.30099746
  atomic energy  EATOM  =     11837.87571814
  Solvation  Ediel_sol  =         0.00000000
  ---------------------------------------------------
  free energy    TOTEN  =      -105.81871728 eV

  energy without entropy =     -105.75252494  energy(sigma->0) =     -105.78562111


--------------------------------------------------------------------------------------------------------




--------------------------------------- Iteration      1(  16)  ---------------------------------------


    POTLOK:  cpu time    0.0465: real time    0.0466
    SETDIJ:  cpu time    0.0081: real time    0.0081
    EDDIAG:  cpu time    0.7572: real time    0.7588
  RMM-DIIS:  cpu time    2.8613: real time    2.8676
    ORTHCH:  cpu time    0.1264: real time    0.1265
       DOS:  cpu time    0.0004: real time    0.0004
    CHARGE:  cpu time    0.2528: real time    0.2534
    MIXING:  cpu time    0.0043: real time    0.0043
    --------------------------------------------
      LOOP:  cpu time    4.0570: real time    4.0658

 eigenvalue-minimisations  :  2620
 total energy-change (2. order) : 0.9295845E-02  (-0.1432375E-02)
 number of electron     166.0000004 magnetization 
 augmentation part       49.8486421 magnetization 

 Broyden mixing:
  rms(total) = 0.32965E-01    rms(broyden)= 0.32961E-01
  rms(prec ) = 0.38335E-01
  weight for this iteration     100.00

 eigenvalues of (default mixing * dielectric matrix)
  average eigenvalue GAMMA=   0.8023
  2.0119  2.0119  1.3058  0.7452  0.7452  0.4783  0.4783  0.1685  0.3281  0.2631
  0.2893

 Free energy of the ion-electron system (eV)
  ---------------------------------------------------
  alpha Z        PSCENC =       388.61070960
  Ewald energy   TEWEN  =     38687.09073143
  -Hartree energ DENC   =    -51104.07786862
  -exchange      EXHF   =         0.00000000
  -V(xc)+E(xc)   XCENC  =        66.44488448
  PAW double counting   =     14462.23104857   -14053.73028251
  entropy T*S    EENTRO =        -0.06582327
  eigenvalues    EBANDS =      -390.18853925
  atomic energy  EATOM  =     11837.87571814
  Solvation  Ediel_sol  =         0.00000000
  ---------------------------------------------------
  free energy    TOTEN  =      -105.80942144 eV

  energy without entropy =     -105.74359817  energy(sigma->0) =     -105.77650980


--------------------------------------------------------------------------------------------------------




--------------------------------------- Iteration      1(  17)  ---------------------------------------


    POTLOK:  cpu time    0.0498: real time    0.0499
    SETDIJ:  cpu time    0.0091: real time    0.0091
    EDDIAG:  cpu time    0.7594: real time    0.7611
  RMM-DIIS:  cpu time    2.9950: real time    3.0016
    ORTHCH:  cpu time    0.1248: real time    0.1251
       DOS:  cpu time    0.0004: real time    0.0004
    CHARGE:  cpu time    0.2498: real time    0.2501
    MIXING:  cpu time    0.0035: real time    0.0035
    --------------------------------------------
      LOOP:  cpu time    4.1918: real time    4.2009

 eigenvalue-minimisations  :  2771
 total energy-change (2. order) : 0.7095856E-03  (-0.5059921E-03)
 number of electron     166.0000004 magnetization 
 augmentation part       49.8457307 magnetization 

 Broyden mixing:
  rms(total) = 0.25117E-01    rms(broyden)= 0.25116E-01
  rms(prec ) = 0.28353E-01
  weight for this iteration     100.00

 eigenvalues of (default mixing * dielectric matrix)
  average eigenvalue GAMMA=   0.8112
  2.0505  1.9826  1.4679  0.8292  0.8292  0.7240  0.4826  0.1685  0.3568  0.3087
  0.2639  0.2702

 Free energy of the ion-electron system (eV)
  ---------------------------------------------------
  alpha Z        PSCENC =       388.61070960
  Ewald energy   TEWEN  =     38687.09073143
  -Hartree energ DENC   =    -51105.82397803
  -exchange      EXHF   =         0.00000000
  -V(xc)+E(xc)   XCENC  =        66.45838228
  PAW double counting   =     14460.15270666   -14051.61805485
  entropy T*S    EENTRO =        -0.06594959
  eigenvalues    EBANDS =      -388.48897750
  atomic energy  EATOM  =     11837.87571814
  Solvation  Ediel_sol  =         0.00000000
  ---------------------------------------------------
  free energy    TOTEN  =      -105.80871185 eV

  energy without entropy =     -105.74276227  energy(sigma->0) =     -105.77573706


--------------------------------------------------------------------------------------------------------




--------------------------------------- Iteration      1(  18)  ---------------------------------------


    POTLOK:  cpu time    0.0465: real time    0.0469
    SETDIJ:  cpu time    0.0082: real time    0.0082
    EDDIAG:  cpu time    0.7601: real time    0.7614
  RMM-DIIS:  cpu time    3.0370: real time    3.0439
    ORTHCH:  cpu time    0.1250: real time    0.1253
       DOS:  cpu time    0.0003: real time    0.0003
    CHARGE:  cpu time    0.2514: real time    0.2518
    MIXING:  cpu time    0.0037: real time    0.0037
    --------------------------------------------
      LOOP:  cpu time    4.2321: real time    4.2415

 eigenvalue-minimisations  :  2790
 total energy-change (2. order) : 0.4288088E-03  (-0.1651618E-03)
 number of electron     166.0000004 magnetization 
 augmentation part       49.8416849 magnetization 

 Broyden mixing:
  rms(total) = 0.13640E-01    rms(broyden)= 0.13640E-01
  rms(prec ) = 0.17157E-01
  weight for this iteration     100.00

 eigenvalues of (default mixing * dielectric matrix)
  average eigenvalue GAMMA=   0.8438
  2.1031  1.8070  1.8070  1.0039  1.0039  0.6978  0.6978  0.5010  0.1685  0.3336
  0.3092  0.2624  0.2743

 Free energy of the ion-electron system (eV)
  ---------------------------------------------------
  alpha Z        PSCENC =       388.61070960
  Ewald energy   TEWEN  =     38687.09073143
  -Hartree energ DENC   =    -51108.24236751
  -exchange      EXHF   =         0.00000000
  -V(xc)+E(xc)   XCENC  =        66.46809816
  PAW double counting   =     14459.21310425   -14050.66334884
  entropy T*S    EENTRO =        -0.06601407
  eigenvalues    EBANDS =      -386.09491421
  atomic energy  EATOM  =     11837.87571814
  Solvation  Ediel_sol  =         0.00000000
  ---------------------------------------------------
  free energy    TOTEN  =      -105.80828304 eV

  energy without entropy =     -105.74226898  energy(sigma->0) =     -105.77527601


--------------------------------------------------------------------------------------------------------




--------------------------------------- Iteration      1(  19)  ---------------------------------------


    POTLOK:  cpu time    0.0467: real time    0.0469
    SETDIJ:  cpu time    0.0081: real time    0.0081
    EDDIAG:  cpu time    0.7586: real time    0.7603
  RMM-DIIS:  cpu time    2.9895: real time    2.9960
    ORTHCH:  cpu time    0.1252: real time    0.1253
       DOS:  cpu time    0.0004: real time    0.0004
    CHARGE:  cpu time    0.2501: real time    0.2506
    MIXING:  cpu time    0.0039: real time    0.0039
    --------------------------------------------
      LOOP:  cpu time    4.1824: real time    4.1914

 eigenvalue-minimisations  :  2766
 total energy-change (2. order) : 0.1790937E-03  (-0.7861962E-04)
 number of electron     166.0000004 magnetization 
 augmentation part       49.8435303 magnetization 

 Broyden mixing:
  rms(total) = 0.93643E-02    rms(broyden)= 0.93640E-02
  rms(prec ) = 0.12181E-01
  weight for this iteration     100.00

 eigenvalues of (default mixing * dielectric matrix)
  average eigenvalue GAMMA=   0.8832
  2.2715  2.2715  1.8520  1.0773  1.0773  0.7718  0.7718  0.4897  0.1685  0.4266
  0.3421  0.3075  0.2622  0.2757

 Free energy of the ion-electron system (eV)
  ---------------------------------------------------
  alpha Z        PSCENC =       388.61070960
  Ewald energy   TEWEN  =     38687.09073143
  -Hartree energ DENC   =    -51110.38609049
  -exchange      EXHF   =         0.00000000
  -V(xc)+E(xc)   XCENC  =        66.47821634
  PAW double counting   =     14458.32570616   -14049.76768053
  entropy T*S    EENTRO =        -0.06592037
  eigenvalues    EBANDS =      -383.96949423
  atomic energy  EATOM  =     11837.87571814
  Solvation  Ediel_sol  =         0.00000000
  ---------------------------------------------------
  free energy    TOTEN  =      -105.80810395 eV

  energy without entropy =     -105.74218358  energy(sigma->0) =     -105.77514377


--------------------------------------------------------------------------------------------------------




--------------------------------------- Iteration      1(  20)  ---------------------------------------


    POTLOK:  cpu time    0.0468: real time    0.0469
    SETDIJ:  cpu time    0.0081: real time    0.0081
    EDDIAG:  cpu time    0.7570: real time    0.7588
  RMM-DIIS:  cpu time    2.8889: real time    2.8952
    ORTHCH:  cpu time    0.1249: real time    0.1251
       DOS:  cpu time    0.0004: real time    0.0004
    CHARGE:  cpu time    0.2511: real time    0.2517
    MIXING:  cpu time    0.0042: real time    0.0042
    --------------------------------------------
      LOOP:  cpu time    4.0814: real time    4.0903

 eigenvalue-minimisations  :  2659
 total energy-change (2. order) : 0.1781322E-04  (-0.6098677E-04)
 number of electron     166.0000004 magnetization 
 augmentation part       49.8441622 magnetization 

 Broyden mixing:
  rms(total) = 0.10427E-01    rms(broyden)= 0.10427E-01
  rms(prec ) = 0.14889E-01
  weight for this iteration     100.00

 eigenvalues of (default mixing * dielectric matrix)
  average eigenvalue GAMMA=   0.8807
  2.3091  2.0686  1.9242  1.5306  0.8297  0.8297  0.7743  0.7057  0.5258  0.1685
  0.3548  0.3455  0.3064  0.2626  0.2743

 Free energy of the ion-electron system (eV)
  ---------------------------------------------------
  alpha Z        PSCENC =       388.61070960
  Ewald energy   TEWEN  =     38687.09073143
  -Hartree energ DENC   =    -51113.15697767
  -exchange      EXHF   =         0.00000000
  -V(xc)+E(xc)   XCENC  =        66.49216215
  PAW double counting   =     14456.99163613   -14048.41746962
  entropy T*S    EENTRO =        -0.06585190
  eigenvalues    EBANDS =      -381.22874439
  atomic energy  EATOM  =     11837.87571814
  Solvation  Ediel_sol  =         0.00000000
  ---------------------------------------------------
  free energy    TOTEN  =      -105.80808614 eV

  energy without entropy =     -105.74223423  energy(sigma->0) =     -105.77516019


--------------------------------------------------------------------------------------------------------




--------------------------------------- Iteration      1(  21)  ---------------------------------------


    POTLOK:  cpu time    0.0469: real time    0.0471
    SETDIJ:  cpu time    0.0082: real time    0.0082
    EDDIAG:  cpu time    0.7562: real time    0.7579
  RMM-DIIS:  cpu time    2.9957: real time    3.0021
    ORTHCH:  cpu time    0.1244: real time    0.1247
       DOS:  cpu time    0.0004: real time    0.0004
    CHARGE:  cpu time    0.2496: real time    0.2500
    MIXING:  cpu time    0.0041: real time    0.0041
    --------------------------------------------
      LOOP:  cpu time    4.1855: real time    4.1945

 eigenvalue-minimisations  :  2775
 total energy-change (2. order) :-0.9264583E-04  (-0.1998867E-04)
 number of electron     166.0000004 magnetization 
 augmentation part       49.8430759 magnetization 

 Broyden mixing:
  rms(total) = 0.66228E-02    rms(broyden)= 0.66227E-02
  rms(prec ) = 0.92335E-02
  weight for this iteration     100.00

 eigenvalues of (default mixing * dielectric matrix)
  average eigenvalue GAMMA=   0.8931
  2.3305  2.1970  1.9085  1.9085  0.9286  0.9286  0.7636  0.7636  0.5247  0.1685
  0.3807  0.3557  0.2624  0.2710  0.3040  0.2945

 Free energy of the ion-electron system (eV)
  ---------------------------------------------------
  alpha Z        PSCENC =       388.61070960
  Ewald energy   TEWEN  =     38687.09073143
  -Hartree energ DENC   =    -51114.25267284
  -exchange      EXHF   =         0.00000000
  -V(xc)+E(xc)   XCENC  =        66.49486141
  PAW double counting   =     14457.20602487   -14048.63786570
  entropy T*S    EENTRO =        -0.06593014
  eigenvalues    EBANDS =      -380.12975555
  atomic energy  EATOM  =     11837.87571814
  Solvation  Ediel_sol  =         0.00000000
  ---------------------------------------------------
  free energy    TOTEN  =      -105.80817878 eV

  energy without entropy =     -105.74224864  energy(sigma->0) =     -105.77521371


--------------------------------------------------------------------------------------------------------




--------------------------------------- Iteration      1(  22)  ---------------------------------------


[...]
      4      -5.6614      2.00000
      5      -5.5398      2.00000
      6      -5.3081      2.00000
      7      -5.0624      2.00000
      8      -4.8382      2.00000
      9      -4.7347      2.00000
     10      -4.5263      2.00000
     11      -4.3046      2.00000
     12      -4.2548      2.00000
     13      -4.0962      2.00000
     14      -4.0806      2.00000
     15      -3.9991      2.00000
     16      -3.9898      2.00000
     17      -3.9579      2.00000
     18      -3.9189      2.00000
     19      -3.9032      2.00000
     20      -3.7363      2.00000
     21      -3.7094      2.00000
     22      -3.6802      2.00000
     23      -3.6415      2.00000
     24      -3.5524      2.00000
     25      -3.3538      2.00000
     26      -3.3363      2.00000
     27      -3.3044      2.00000
     28      -3.2900      2.00000
     29      -3.0789      2.00000
     30      -3.0506      2.00000
     31      -3.0120      2.00000
     32      -2.9357      2.00000
     33      -2.8656      2.00000
     34      -2.7825      2.00000
     35      -2.6703      2.00000
     36      -2.6021      2.00000
     37      -2.5894      2.00000
     38      -2.5507      2.00000
     39      -2.3855      2.00000
     40      -2.3043      2.00000
     41      -2.2251      2.00000
     42      -2.2221      2.00000
     43      -2.1868      2.00000
     44      -1.9199      2.00000
     45      -1.8655      2.00000
     46      -1.7209      2.00000
     47      -1.6362      2.00000
     48      -1.5945      2.00000
     49      -1.4883      2.00000
     50      -1.4246      2.00000
     51      -1.4114      2.00000
     52      -1.2754      2.00000
     53      -1.2425      2.00000
     54      -1.2357      2.00000
     55      -1.1224      2.00000
     56      -1.0828      2.00000
     57      -1.0656      2.00000
     58      -1.0172      2.00000
     59      -0.9140      2.00000
     60      -0.8813      2.00000
     61      -0.8667      2.00000
     62      -0.7786      2.00000
     63      -0.7707      2.00000
     64      -0.6098      2.00000
     65      -0.5729      2.00000
     66      -0.4996      2.00000
     67      -0.4233      2.00000
     68      -0.4190      2.00000
     69      -0.3559      2.00000
     70      -0.3197      2.00000
     71      -0.3171      2.00000
     72      -0.2290      2.00000
     73      -0.2094      2.00000
     74      -0.1416      2.00000
     75      -0.0405      2.00000
     76       0.0156      2.00000
     77       0.1407      2.00000
     78       0.2486      2.00000
     79       0.2525      2.00000
     80       0.2774      2.00000
     81       0.3732      2.00000
     82       0.4414      2.00000
     83       0.6898      2.00000
     84       0.9913      1.82264
     85       1.0047      1.71493
     86       1.0595      0.80253
     87       1.1159      0.13138
     88       1.1735      0.01392
     89       1.2176      0.00241
     90       1.7307      0.00000
     91       1.9963      0.00000
     92       2.0822      0.00000
     93       2.5666      0.00000
     94       3.0042      0.00000
     95       3.4986      0.00000
     96       3.9749      0.00000
     97       4.6557      0.00000
     98       5.2288      0.00000
     99       5.6309      0.00000
    100       6.2383      0.00000


--------------------------------------------------------------------------------------------------------


 soft charge-density along one line, spin component           1
         0         1         2         3         4         5         6         7         8         9
 total charge-density along one line
 
 pseudopotential strength for first ion, spin component:           1
 -6.058  -0.004  -0.001  -0.004   0.000  -6.173  -0.004  -0.001
 -0.004  -6.035  -0.002   0.002   0.002  -0.004  -6.151  -0.002
 -0.001  -0.002  -6.002  -0.002  -0.000  -0.001  -0.002  -6.119
 -0.004   0.002  -0.002  -6.035  -0.002  -0.003   0.002  -0.002
  0.000   0.002  -0.000  -0.002  -6.126   0.000   0.002  -0.000
 -6.173  -0.004  -0.001  -0.003   0.000  -6.272  -0.004  -0.001
 -0.004  -6.151  -0.002   0.002   0.002  -0.004  -6.251  -0.002
 -0.001  -0.002  -6.119  -0.002  -0.000  -0.001  -0.002  -6.219
 -0.003   0.002  -0.002  -6.151  -0.002  -0.003   0.002  -0.002
  0.000   0.002  -0.000  -0.002  -6.239   0.000   0.002  -0.000
 -0.000   0.002  -0.024   0.002  -0.000  -0.000   0.002  -0.023
 -0.001   0.002  -0.035   0.003  -0.000  -0.001   0.002  -0.034
 -0.000  -0.008   0.000  -0.000   0.000  -0.000  -0.007   0.000
 -0.000  -0.000  -0.013  -0.000   0.000  -0.000  -0.000  -0.012
 -0.000  -0.000   0.000  -0.008  -0.000  -0.000  -0.000   0.000
 -0.000  -0.007   0.000  -0.000   0.000  -0.000  -0.006   0.000
 -0.000  -0.001  -0.014  -0.001   0.000  -0.000  -0.001  -0.013
 -0.000  -0.000   0.000  -0.007  -0.000  -0.000  -0.000   0.000
 total augmentation occupancy for first ion, spin component:           1
  4.157  -0.053  -0.008  -0.052   0.002  -2.280   0.035   0.006   0.035  -0.001  -0.002  -0.007   0.005   0.003   0.004  -0.001
 -0.053   3.469  -0.028   0.033   0.004   0.036  -1.914   0.019  -0.021  -0.003  -0.021   0.005  -0.373   0.007  -0.001   0.014
 -0.008  -0.028   3.816  -0.029   0.002   0.006   0.019  -2.005   0.020  -0.001   0.589  -0.068   0.002  -0.228   0.002   0.000
 -0.052   0.033  -0.029   3.471  -0.003   0.036  -0.021   0.020  -1.915   0.002  -0.022   0.005  -0.001   0.007  -0.373  -0.000
  0.002   0.004   0.002  -0.003   2.100  -0.001  -0.004  -0.001   0.004  -1.373   0.001   0.000  -0.000  -0.000   0.001   0.000
 -2.280   0.036   0.006   0.036  -0.001   2.241  -0.024  -0.005  -0.024   0.001   0.002   0.004  -0.003  -0.002  -0.002   0.000
  0.035  -1.914   0.019  -0.021  -0.004  -0.024   2.118  -0.013   0.013   0.003   0.011   0.001   0.373  -0.004   0.001  -0.024
  0.006   0.019  -2.005   0.020  -0.001  -0.005  -0.013   2.037  -0.014   0.001  -0.498   0.045  -0.001   0.278  -0.001   0.000
  0.035  -0.021   0.020  -1.915   0.004  -0.024   0.013  -0.014   2.119  -0.003   0.011   0.001   0.001  -0.004   0.373   0.000
 -0.001  -0.003  -0.001   0.002  -1.373   0.001   0.003   0.001  -0.003   2.197  -0.001  -0.000   0.000   0.000  -0.000   0.000
 -0.002  -0.021   0.589  -0.022   0.001   0.002   0.011  -0.498   0.011  -0.001   2.167  -0.425   0.001   0.224   0.001  -0.000
 -0.007   0.005  -0.068   0.005   0.000   0.004   0.001   0.045   0.001  -0.000  -0.425   0.107   0.000  -0.076   0.000   0.000
  0.005  -0.373   0.002  -0.001  -0.000  -0.003   0.373  -0.001   0.001   0.000   0.001   0.000   0.219  -0.000   0.001  -0.012
  0.003   0.007  -0.228   0.007  -0.000  -0.002  -0.004   0.278  -0.004   0.000   0.224  -0.076  -0.000   0.134  -0.000  -0.000
  0.004  -0.001   0.002  -0.373   0.001  -0.002   0.001  -0.001   0.373  -0.000   0.001   0.000   0.001  -0.000   0.219  -0.000
 -0.001   0.014   0.000  -0.000   0.000   0.000  -0.024   0.000   0.000   0.000  -0.000   0.000  -0.012  -0.000  -0.000   0.001
 -0.000  -0.001  -0.005  -0.001   0.000   0.000  -0.000  -0.014  -0.000  -0.000  -0.022   0.006   0.000  -0.008  -0.000   0.000
 -0.001  -0.000   0.000   0.014  -0.000   0.000   0.000   0.000  -0.024  -0.000  -0.000   0.000  -0.000  -0.000  -0.012  -0.000


------------------------ aborting loop because EDIFF is reached ----------------------------------------


    CHARGE:  cpu time    0.2516: real time    0.2520
    FORLOC:  cpu time    0.0143: real time    0.0150
    FORNL :  cpu time    1.2378: real time    1.2409
    STRESS:  cpu time    3.7244: real time    3.7333
    FORCOR:  cpu time    0.0682: real time    0.0705
    FORHAR:  cpu time    0.0223: real time    0.0223
    MIXING:  cpu time    0.0083: real time    0.0083
    OFIELD:  cpu time    0.0000: real time    0.0000

  Hirshfeld-DOM and Hirshfeld charges and relative Volumes:   
            ion         q(e)           q(e)           rel_vol 
   -----------------------------------------------------------
      1     Pt         -0.068         -0.032          1.062
      2     Pt         -0.033         -0.026          1.007
      3     Pt         -0.033         -0.025          1.007
      4     Pt         -0.013         -0.032          0.956
      5     Pt          0.003          0.013          0.960
      6     Pt          0.033          0.025          0.924
      7     Pt          0.033          0.026          0.924
      8     Pt          0.047          0.020          0.889
      9     Pt          0.011          0.010          0.927
     10     Pt          0.015          0.012          0.926
     11     Pt          0.015          0.011          0.926
     12     Pt          0.013          0.011          0.925
     13     Pt         -0.065         -0.048          1.025
     14     Pt         -0.020         -0.016          0.998
     15     Pt         -0.028         -0.020          1.007
     16     Pt          0.091          0.093          0.967
     17     C          -0.110         -0.097          0.948
     18     H           0.054          0.038          0.704
     19     H           0.054          0.037          0.705

  dDsC method for vdW energy calculation
  ---------------------------------------------------------------------------------------------

  Parameters of vdW forcefield:
            C6dDsC            XDM            ALPHAts        RELVOL
            (au)              (au)            (au)                
   ---------------------------------------------------------------
   Pt        598.344         16.965         42.149          1.062
   Pt        551.541         16.492         39.967          1.007
   Pt        551.530         16.492         39.967          1.007
   Pt        510.327         16.070         37.951          0.956
   Pt        422.209         13.251         38.078          0.960
   Pt        402.241         13.110         36.668          0.924
   Pt        402.063         13.106         36.661          0.924
   Pt        383.085         12.971         35.295          0.889
   Pt        400.370         13.012         36.772          0.927
   Pt        399.711         12.998         36.751          0.926
   Pt        399.436         12.996         36.730          0.926
   Pt        399.633         13.009         36.713          0.925
   Pt        573.608         16.858         40.662          1.025
   Pt        539.000         16.270         39.590          0.998
   Pt        549.318         16.434         39.947          1.007
   Pt        485.848         15.131         38.373          0.967
   C          64.932          6.825         11.370          0.948
   H           4.843          1.827          3.167          0.704
   H           4.898          1.846          3.170          0.705

  IVDW =   4
  VDW_RADIUS =    50.000 A
  VDW_S6 aka ATT0 =    13.960
  VDW_SR aka BTT0 =     1.320
  LVDW_ONECELL = F F F

  Number of pair interactions contributing to vdW energy:  152199
  Edisp (eV):   -4.80710
    FORVDW:  cpu time   14.0988: real time   14.1170

  FORCE on cell =-STRESS in cart. coord.  units (eV):
  Direction    XX          YY          ZZ          XY          YZ          ZX
  --------------------------------------------------------------------------------------
  Alpha Z   388.61071   388.61071   388.61071
  Ewald   47321.06473 47343.19841-55977.19503   -41.66833    -1.55395     3.63528
  Hartree 50238.09785 50245.76299-49364.20632   -12.65702    -0.46302     1.18190
  E(xc)    -728.74924  -728.68357  -731.46187    -0.18546    -0.00557     0.01028
  Local  ************************102354.61153    52.49153     1.67514    -4.47000
  n-local    57.66472    56.59083    67.22293     2.48838    -0.19799     0.10766
  augment   840.83200   841.55292   844.59576    -1.09477     0.17993    -0.13292
  Kinetic  2400.55795  2400.67132  2417.35994     0.55596     0.30332    -0.32658
  Fock        0.00000     0.00000     0.00000     0.00000     0.00000     0.00000
  vdW        -5.83974    -5.83961    -3.98784     0.00133     0.00293    -0.00286
  -------------------------------------------------------------------------------------
  Total     -18.01188   -17.87346    -4.45019    -0.06838    -0.05921     0.00276
  in kB     -43.68888   -43.35313   -10.79421    -0.16586    -0.14361     0.00669
  external pressure =      -32.61 kB  Pullay stress =        0.00 kB


 VOLUME and BASIS-vectors are now :
 -----------------------------------------------------------------------------
  energy-cutoff  :      400.00
  volume of cell :      660.54
      direct lattice vectors                 reciprocal lattice vectors
     5.614427843  0.000000000  0.000000000     0.178112539  0.000000000  0.000000000
     0.000000000  5.614427843  0.000000000     0.000000000  0.178112539  0.000000000
     0.000000000  0.000000000 20.955000000     0.000000000  0.000000000  0.047721308

  length of vectors
     5.614427843  5.614427843 20.955000000     0.178112539  0.178112539  0.047721308


 FORCES acting on ions
    electron-ion (+dipol)            ewald-force                    non-local-force                 convergence-correction
 -----------------------------------------------------------------------------------------------
   0.385E+00 0.412E+00 0.215E+04   -.275E+00 -.303E+00 -.215E+04   -.480E-01 -.426E-01 -.132E+01   0.159E-04 0.925E-05 -.537E-04
   -.251E+00 0.274E+00 0.215E+04   0.255E+00 -.280E+00 -.215E+04   0.120E-02 0.439E-02 -.134E+01   -.171E-04 0.108E-04 -.722E-04
   0.247E+00 -.275E+00 0.215E+04   -.260E+00 0.280E+00 -.215E+04   0.462E-02 -.289E-02 -.134E+01   0.146E-04 -.933E-05 -.351E-04
   -.384E+00 -.411E+00 0.215E+04   0.277E+00 0.294E+00 -.215E+04   0.432E-01 0.469E-01 -.131E+01   -.138E-04 -.974E-05 -.605E-04
   -.159E+00 -.106E+00 0.791E+03   0.159E+00 0.101E+00 -.791E+03   0.163E-03 0.109E-01 -.449E+00   -.128E-03 0.153E-03 0.621E-03
   0.898E-01 -.194E+00 0.796E+03   -.926E-01 0.189E+00 -.796E+03   0.564E-03 0.135E-01 -.648E+00   0.129E-03 0.153E-03 0.631E-03
   -.748E-01 -.156E+00 0.797E+03   0.761E-01 0.152E+00 -.796E+03   0.323E-02 0.124E-01 -.669E+00   -.127E-03 -.154E-03 0.624E-03
   -.586E-02 -.843E-01 0.799E+03   0.669E-02 0.787E-01 -.799E+03   0.480E-02 0.124E-01 -.721E+00   0.127E-03 -.154E-03 0.628E-03
   0.270E+01 0.279E+01 -.625E+03   -.231E+01 -.240E+01 0.626E+03   -.377E+00 -.387E+00 -.259E+00   0.373E-04 0.112E-04 0.312E-03
   -.530E+00 0.514E+00 -.606E+03   0.497E+00 -.484E+00 0.605E+03   0.256E-01 -.211E-01 0.294E+00   -.340E-04 0.135E-04 0.304E-03
   0.892E+00 -.714E+00 -.606E+03   -.828E+00 0.660E+00 0.606E+03   -.540E-01 0.455E-01 0.274E+00   0.344E-04 -.149E-04 0.351E-03
   -.275E+01 -.240E+01 -.625E+03   0.237E+01 0.203E+01 0.625E+03   0.375E+00 0.361E+00 -.242E+00   -.333E-04 -.193E-04 0.315E-03
   -.584E+00 0.194E+00 -.200E+04   0.583E+00 -.185E+00 0.200E+04   0.196E-02 -.146E-01 0.149E+01   -.335E-04 0.541E-04 -.220E-03
   0.551E+00 0.139E+00 -.197E+04   -.558E+00 -.144E+00 0.197E+04   0.119E-01 -.548E-02 0.187E+01   0.345E-04 0.572E-04 -.254E-03
   -.123E+01 -.332E-01 -.197E+04   0.128E+01 0.396E-01 0.197E+04   -.399E-01 -.142E-01 0.190E+01   -.331E-04 -.552E-04 -.241E-03
   0.340E+01 -.438E+00 -.191E+04   -.331E+01 0.403E+00 0.192E+04   -.110E+00 0.490E-01 -.698E+01   0.274E-04 -.462E-04 -.277E-03
   -.967E+00 0.220E+00 -.966E+03   0.916E+00 -.260E+00 0.965E+03   0.491E-01 0.430E-01 0.880E+00   0.123E-05 -.227E-05 -.951E-04
   0.241E+02 -.315E+02 -.242E+03   -.271E+02 0.354E+02 0.245E+03   0.296E+01 -.388E+01 -.301E+01   -.346E-05 0.445E-05 -.112E-04
   -.252E+02 0.316E+02 -.242E+03   0.283E+02 -.355E+02 0.245E+03   -.309E+01 0.390E+01 -.288E+01   0.366E-05 -.467E-05 -.121E-04
 -----------------------------------------------------------------------------------------------
   0.242E+00 -.125E+00 0.143E+02   0.000E+00 -.711E-14 -.881E-12   -.232E+00 0.130E+00 -.145E+02   0.125E-05 -.254E-05 0.245E-02
 
 
 POSITION                                       TOTAL-FORCE (eV/Angst)
 -----------------------------------------------------------------------------------
      1.40361      1.40361      7.50000         0.078946      0.083468      0.397904
      4.21082      1.40361      7.50000        -0.011299      0.015090      0.557698
      1.40361      4.21082      7.50000         0.007054     -0.015641      0.559507
      4.21082      4.21082      7.50000        -0.081001     -0.087653      0.393332
      0.00000      0.00000      9.48500         0.010694      0.016936     -0.673853
      2.80721      0.00000      9.48500        -0.013219      0.019116     -0.335118
      0.00000      2.80721      9.48500         0.014567     -0.003220     -0.318316
      2.80721      2.80721      9.48500        -0.005996     -0.004847     -0.564165
      1.43602      1.43976     11.44837         0.001898     -0.002150     -0.000694
      4.21815      1.40077     11.40981         0.000630     -0.000044     -0.001351
      1.39823      4.21827     11.41033         0.001467      0.000061      0.002652
      4.17940      4.18080     11.44772        -0.001285     -0.006272     -0.000505
      0.00005      0.00410     13.32771        -0.016828      0.010613     -0.002122
      2.80691      0.00429     13.30913         0.021154      0.000990     -0.001808
      0.00030      2.81161     13.31662        -0.005912     -0.024548     -0.002087
      2.80699      2.81216     13.53413         0.002248     -0.001595      0.009734
      2.84611      2.80458     15.39660        -0.005582      0.005586     -0.021778
      2.28553      3.54018     15.98886        -0.011148     -0.004150     -0.000590
      3.42994      2.06660     15.96211         0.013610     -0.001742      0.001559
 -----------------------------------------------------------------------------------
    total drift:                                0.009778      0.005358     -0.122296


--------------------------------------------------------------------------------------------------------



  FREE ENERGIE OF THE ION-ELECTRON SYSTEM (eV)
  ---------------------------------------------------
  free  energy   TOTEN  =      -110.61689827 eV

  energy  without entropy=     -110.55101346  energy(sigma->0) =     -110.58395586
 


--------------------------------------------------------------------------------------------------------


    POTLOK:  cpu time    0.0608: real time    0.0609


--------------------------------------------------------------------------------------------------------


 stress matrix after NEB project (eV)
    -18.01188     -0.06838      0.00276
     -0.06838    -17.87346     -0.05921
      0.00276     -0.05921     -4.45019
  FORCES: max atom, RMS     0.025336    0.011532
  FORCE total and by dimension    0.050268    0.024548
  Stress total and by dimension   25.762547   18.011880


--------------------------------------------------------------------------------------------------------


  
 reached required accuracy - stopping structural energy minimisation
     LOOP+:  cpu time  171.4126: real time  171.8768
    4ORBIT:  cpu time    0.0000: real time    0.0000

 total amount of memory used by VASP MPI-rank0    76873. kBytes
=======================================================================

   base      :      30000. kBytes
   nonlr-proj:       3194. kBytes
   fftplans  :       4170. kBytes
   grid      :       7156. kBytes
   one-center:        155. kBytes
   wavefun   :      32198. kBytes
 
  
  
 General timing and accounting informations for this job:
 ========================================================
  
                  Total CPU time used (sec):      174.097
                            User time (sec):      173.618
                          System time (sec):        0.479
                         Elapsed time (sec):      175.346
  
                   Maximum memory used (kb):      296152.
                   Average memory used (kb):          N/A
  
                          Minor page faults:        64883
                          Major page faults:         3945
                 Voluntary context switches:         2949
