 vasp.6.2.1 16May21 (build Mar 24 2023 06:39:03) complex                        
  
 executed on             LinuxIFC date 2023.04.14  15:49:51
 running on   16 total cores
 distrk:  each k-point on   16 cores,    1 groups
 distr:  one band on NCORE=   4 cores,    4 groups


--------------------------------------------------------------------------------------------------------


 INCAR:
   PREC = Normal
   ENCUT = 400
   EDIFF = 1e-6
   GGA = PE
   ISMEAR = -1
   IBRION = 2
   SIGMA = 0.025
   EDIFFG = -0.03
   NSW = 200
   ALGO = fast
   ENAUG = 644.873
   NELM = 200
   LREAL = Auto
   IVDW = 4
   LWAVE = FALSE
   LCHARG = FALSE
   LPLANE = .TRUE.
   NPAR = 4
   LSCALU = .FALSE.
   NSIM = 1

 POTCAR:    PAW_PBE Pt 04Feb2005                  
 POTCAR:    PAW_PBE C 08Apr2002                   
 POTCAR:    PAW_PBE H 15Jun2001                   
 POTCAR:    PAW_PBE Pt 04Feb2005                  
   VRHFIN =Pt: s1d9                                                                                 
   LEXCH  = PE                                                                                      
   EATOM  =   729.1176 eV,   53.5886 Ry                                                             
                                                                                                    
   TITEL  = PAW_PBE Pt 04Feb2005                                                                    
   LULTRA =        F    use ultrasoft PP ?                                                          
   IUNSCR =        1    unscreen: 0-lin 1-nonlin 2-no                                               
   RPACOR =    2.330    partial core radius                                                         
   POMASS =  195.080; ZVAL   =   10.000    mass and valenz                                          
   RCORE  =    2.600    outmost cutoff radius                                                       
   RWIGS  =    2.750; RWIGS  =    1.455    wigner-seitz radius (au A)                               
   ENMAX  =  230.283; ENMIN  =  172.712 eV                                                          
   ICORE  =        3    local potential                                                             
   LCOR   =        T    correct aug charges                                                         
   LPAW   =        T    paw PP                                                                      
   EAUG   =  358.966                                                                                
   DEXC   =    0.000                                                                                
   RMAX   =    2.658    core radius for proj-oper                                                   
   RAUG   =    1.300    factor for augmentation sphere                                              
   RDEP   =    2.761    radius for radial grids                                                     
   RDEPT  =    2.203    core radius for aug-charge                                                  
                                                                                                    
   Atomic configuration                                                                             
   16 entries                                                                                       
     n  l   j            E        occ.                                                              
     1  0  0.50    -78401.1885   2.0000                                                             
     2  0  0.50    -13770.7750   2.0000                                                             
     2  1  1.50    -11931.0468   6.0000                                                             
     3  0  0.50     -3234.7234   2.0000                                                             
     3  1  1.50     -2699.2216   6.0000                                                             
     3  2  2.50     -2119.5714  10.0000                                                             
     4  0  0.50      -695.1528   2.0000                                                             
     4  1  1.50      -519.6034   6.0000                                                             
     4  2  2.50      -306.6786  10.0000                                                             
     4  3  3.50       -70.1041  14.0000                                                             
     5  0  0.50      -101.7747   2.0000                                                             
     5  1  1.50       -55.9873   6.0000                                                             
     5  2  2.50        -6.1423   9.0000                                                             
     6  0  0.50        -5.6573   1.0000                                                             
     6  1  1.50        -6.8029   0.0000                                                             
     5  3  2.50        -1.3606   0.0000                                                             
   Description                                                                                      
     l       E           TYP  RCUT    TYP  RCUT                                                     
     2     -6.1423404     23  2.500                                                                 
     2     -7.5029230     23  2.500                                                                 
     0     -5.6573207     23  2.500                                                                 
     0      0.7416693     23  2.500                                                                 
     1     -2.7211652     23  2.600                                                                 
     1     20.4087390     23  2.600                                                                 
     3     -1.3605826     23  2.500                                                                 
  local pseudopotential read in
  partial core-charges read in
  partial kinetic energy density read in
  atomic valenz-charges read in
  non local Contribution for L=           2  read in
    real space projection operators read in
  non local Contribution for L=           2  read in
    real space projection operators read in
  non local Contribution for L=           0  read in
    real space projection operators read in
  non local Contribution for L=           0  read in
    real space projection operators read in
  non local Contribution for L=           1  read in
    real space projection operators read in
  non local Contribution for L=           1  read in
    real space projection operators read in
    PAW grid and wavefunctions read in
 
   number of l-projection  operators is LMAX  =           6
   number of lm-projection operators is LMMAX =          18
 
 POTCAR:    PAW_PBE C 08Apr2002                   
   VRHFIN =C: s2p2                                                                                  
   LEXCH  = PE                                                                                      
   EATOM  =   147.1560 eV,   10.8157 Ry                                                             
                                                                                                    
   TITEL  = PAW_PBE C 08Apr2002                                                                     
   LULTRA =        F    use ultrasoft PP ?                                                          
   IUNSCR =        1    unscreen: 0-lin 1-nonlin 2-no                                               
   RPACOR =    1.200    partial core radius                                                         
   POMASS =   12.011; ZVAL   =    4.000    mass and valenz                                          
   RCORE  =    1.500    outmost cutoff radius                                                       
   RWIGS  =    1.630; RWIGS  =    0.863    wigner-seitz radius (au A)                               
   ENMAX  =  400.000; ENMIN  =  300.000 eV                                                          
   ICORE  =        2    local potential                                                             
   LCOR   =        T    correct aug charges                                                         
   LPAW   =        T    paw PP                                                                      
   EAUG   =  644.873                                                                                
   DEXC   =    0.000                                                                                
   RMAX   =    1.529    core radius for proj-oper                                                   
   RAUG   =    1.300    factor for augmentation sphere                                              
   RDEP   =    1.501    radius for radial grids                                                     
   RDEPT  =    1.300    core radius for aug-charge                                                  
                                                                                                    
   Atomic configuration                                                                             
    4 entries                                                                                       
     n  l   j            E        occ.                                                              
     1  0  0.50      -273.3789   2.0000                                                             
     2  0  0.50       -13.7508   2.0000                                                             
     2  1  0.50        -5.2854   2.0000                                                             
     3  2  1.50        -5.4423   0.0000                                                             
   Description                                                                                      
     l       E           TYP  RCUT    TYP  RCUT                                                     
     0    -13.7508458     23  1.200                                                                 
     0     -8.2022199     23  1.200                                                                 
     1     -5.2854383     23  1.500                                                                 
     1     34.0145650     23  1.500                                                                 
     2     -5.4423304      7  1.500                                                                 
  local pseudopotential read in
  partial core-charges read in
  partial kinetic energy density read in
  atomic valenz-charges read in
  non local Contribution for L=           0  read in
    real space projection operators read in
  non local Contribution for L=           0  read in
    real space projection operators read in
  non local Contribution for L=           1  read in
    real space projection operators read in
  non local Contribution for L=           1  read in
    real space projection operators read in
    PAW grid and wavefunctions read in
 
   number of l-projection  operators is LMAX  =           4
   number of lm-projection operators is LMMAX =           8
 
 POTCAR:    PAW_PBE H 15Jun2001                   
   VRHFIN =H: ultrasoft test                                                                        
   LEXCH  = PE                                                                                      
   EATOM  =    12.4884 eV,    0.9179 Ry                                                             
                                                                                                    
   TITEL  = PAW_PBE H 15Jun2001                                                                     
   LULTRA =        F    use ultrasoft PP ?                                                          
   IUNSCR =        0    unscreen: 0-lin 1-nonlin 2-no                                               
   RPACOR =    0.000    partial core radius                                                         
   POMASS =    1.000; ZVAL   =    1.000    mass and valenz                                          
   RCORE  =    1.100    outmost cutoff radius                                                       
   RWIGS  =    0.700; RWIGS  =    0.370    wigner-seitz radius (au A)                               
   ENMAX  =  250.000; ENMIN  =  200.000 eV                                                          
   RCLOC  =    0.701    cutoff for local pot                                                        
   LCOR   =        T    correct aug charges                                                         
   LPAW   =        T    paw PP                                                                      
   EAUG   =  400.000                                                                                
   RMAX   =    1.123    core radius for proj-oper                                                   
   RAUG   =    1.200    factor for augmentation sphere                                              
   RDEP   =    1.112    radius for radial grids                                                     
   RDEPT  =    0.926    core radius for aug-charge                                                  
                                                                                                    
   Atomic configuration                                                                             
    2 entries                                                                                       
     n  l   j            E        occ.                                                              
     1  0  0.50        -6.4927   1.0000                                                             
     2  1  0.50        -3.4015   0.0000                                                             
   Description                                                                                      
     l       E           TYP  RCUT    TYP  RCUT                                                     
     0     -6.4927494     23  1.100                                                                 
     0      6.8029130     23  1.100                                                                 
     1     -4.0817478     23  1.100                                                                 
  local pseudopotential read in
  atomic valenz-charges read in
  non local Contribution for L=           0  read in
    real space projection operators read in
  non local Contribution for L=           0  read in
    real space projection operators read in
  non local Contribution for L=           1  read in
    real space projection operators read in
    PAW grid and wavefunctions read in
 
   number of l-projection  operators is LMAX  =           3
   number of lm-projection operators is LMMAX =           5
 
 Optimization of the real space projectors (new method)

 maximal supplied QI-value         = 14.36
 optimisation between [QCUT,QGAM] = [ 10.20, 20.39] = [ 29.12,116.47] Ry 
 Optimized for a Real-space Cutoff    1.51 Angstroem

   l    n(q)    QCUT    max X(q) W(low)/X(q) W(high)/X(q)  e(spline) 
   2      8    10.197    66.195    0.45E-03    0.45E-03    0.14E-06
   2      8    10.197    64.643    0.46E-03    0.46E-03    0.14E-06
   0      9    10.197    95.520    0.15E-03    0.11E-03    0.54E-07
   0      9    10.197    63.403    0.15E-03    0.11E-03    0.52E-07
   1      9    10.197    19.961    0.13E-03    0.17E-03    0.77E-07
   1      9    10.197    13.289    0.10E-03    0.15E-03    0.67E-07
 Optimization of the real space projectors (new method)

 maximal supplied QI-value         = 25.13
 optimisation between [QCUT,QGAM] = [ 10.05, 20.36] = [ 28.30,116.06] Ry 
 Optimized for a Real-space Cutoff    1.30 Angstroem

   l    n(q)    QCUT    max X(q) W(low)/X(q) W(high)/X(q)  e(spline) 
   0      8    10.053   115.676    0.49E-03    0.72E-03    0.18E-06
   0      8    10.053    87.132    0.49E-03    0.71E-03    0.18E-06
   1      7    10.053     4.429    0.32E-03    0.31E-03    0.18E-06
   1      7    10.053     2.733    0.23E-03    0.19E-03    0.20E-06
 Optimization of the real space projectors (new method)

 maximal supplied QI-value         = 34.20
 optimisation between [QCUT,QGAM] = [  9.92, 20.18] = [ 27.55,114.04] Ry 
 Optimized for a Real-space Cutoff    1.26 Angstroem

   l    n(q)    QCUT    max X(q) W(low)/X(q) W(high)/X(q)  e(spline) 
   0      8     9.919    19.460    0.50E-03    0.23E-03    0.29E-06
   0      8     9.919    12.209    0.48E-03    0.23E-03    0.28E-06
   1      7     9.919     4.655    0.17E-03    0.75E-03    0.30E-06
  PAW_PBE Pt 04Feb2005                  :
 energy of atom  1       EATOM= -729.1176
 kinetic energy error for atom=    0.0056 (will be added to EATOM!!)
  PAW_PBE C 08Apr2002                   :
 energy of atom  2       EATOM= -147.1560
 kinetic energy error for atom=    0.0288 (will be added to EATOM!!)
  PAW_PBE H 15Jun2001                   :
 energy of atom  3       EATOM=  -12.4884
 kinetic energy error for atom=    0.0098 (will be added to EATOM!!)
 
 
 POSCAR: Pt  C  H
  positions in cartesian coordinates
  No initial velocities read in
 exchange correlation table for  LEXCH =        8
   RHO(1)=    0.500       N(1)  =     2000
   RHO(2)=  100.500       N(2)  =     4000

 VTST: version 4.2, (08/11/21)

 CHAIN: initializing optimizer
 
 OPT: Using VASP Conjugate-Gradient optimizer
 CHAIN: Read ICHAIN            0
 
 POSCAR: Pt  C  H
  positions in cartesian coordinates
  No initial velocities read in
 


--------------------------------------------------------------------------------------------------------


 ion  position               nearest neighbor table
   1  0.000  0.000  0.343-   4 2.81   4 2.81   2 2.81   2 2.81   3 2.81   3 2.81   7 2.81   8 2.81
                             6 2.81
   2  0.500  0.500  0.343-   3 2.81   3 2.81   1 2.81   1 2.81   4 2.81   4 2.81   8 2.81   7 2.81
                             5 2.81
   3  0.500  0.000  0.343-   2 2.81   2 2.81   4 2.81   4 2.81   1 2.81   1 2.81   5 2.81   6 2.81
                             8 2.81
   4  0.000  0.500  0.343-   1 2.81   1 2.81   3 2.81   3 2.81   2 2.81   2 2.81   6 2.81   5 2.81
                             7 2.81
   5  0.667  0.667  0.448-   8 2.81   8 2.81   6 2.81   6 2.81   7 2.81   7 2.81   3 2.81   4 2.81
                             2 2.81  12 2.81  11 2.81  10 2.84
   6  0.167  0.167  0.448-   7 2.81   7 2.81   5 2.81   5 2.81   8 2.81   8 2.81   4 2.81   3 2.81
                             1 2.81  11 2.81  12 2.81   9 2.81
   7  0.167  0.667  0.448-   6 2.81   6 2.81   8 2.81   8 2.81   5 2.81   5 2.81   1 2.81   2 2.81
                             4 2.81   9 2.81  12 2.81  10 2.84
   8  0.667  0.167  0.448-   5 2.81   5 2.81   7 2.81   7 2.81   6 2.81   6 2.81   2 2.81   1 2.81
                             3 2.81   9 2.81  11 2.81  10 2.84
   9  0.333  0.333  0.553-  12 2.81  11 2.81  10 2.81  10 2.81  11 2.81  12 2.81   6 2.81   8 2.81
                             7 2.81  14 2.82  15 2.84  16 2.84
  10  0.833  0.833  0.554-  13 2.80  15 2.80  16 2.80  11 2.81   9 2.81  12 2.81  12 2.81   9 2.81
                            11 2.81   7 2.84   8 2.84   5 2.84
  11  0.834  0.333  0.553-  12 2.81   9 2.81  10 2.81  10 2.81   9 2.81  12 2.81   6 2.81   5 2.81
                             8 2.81  14 2.82  16 2.84  13 2.84
  12  0.333  0.833  0.553-   9 2.81  11 2.81  10 2.81  10 2.81  11 2.81   9 2.81   6 2.81   5 2.81
                             7 2.81  14 2.82  15 2.84  13 2.84
  13  0.998  0.998  0.659-  17 1.98  15 2.78  16 2.78  10 2.80  14 2.81  14 2.81  16 2.84  15 2.84
                            12 2.84  11 2.84
  14  0.500  0.500  0.658-  15 2.81  16 2.81  13 2.81  13 2.81  16 2.81  15 2.81   9 2.82  11 2.82
                            12 2.82
  15  0.503  0.998  0.659-  17 1.98  13 2.78  16 2.78  10 2.80  14 2.81  14 2.81  16 2.84  13 2.84
                             9 2.84  12 2.84
  16  0.998  0.503  0.659-  17 1.98  13 2.78  15 2.78  10 2.80  14 2.81  14 2.81  15 2.84  13 2.84
                             9 2.84  11 2.84
  17  0.167  0.167  0.710-  18 1.10  13 1.98  15 1.98  16 1.98
  18  0.167  0.166  0.760-  17 1.10
 
  LATTYP: Found a hexagonal cell.
 ALAT       =     5.6144278421
 C/A-ratio  =     3.8964329626
  
  Lattice vectors:
  
 A1 = (  -2.8072139210,  -4.8622371390,   0.0000000000)
 A2 = (   5.6144278430,   0.0000000000,   0.0000000000)
 A3 = (   0.0000000000,   0.0000000000,  21.8762417100)


Analysis of symmetry for initial positions (statically):
=====================================================================
 Subroutine PRICEL returns:
 Original cell was already a primitive cell.
 

 Routine SETGRP: Setting up the symmetry group for a 
 hexagonal supercell.


 Subroutine GETGRP returns: Found  1 space group operations
 (whereof  1 operations were pure point group operations)
 out of a pool of 24 trial point group operations.


The static configuration has the point symmetry C_1 .


Analysis of symmetry for dynamics (positions and initial velocities):
=====================================================================
 Subroutine PRICEL returns:
 Original cell was already a primitive cell.
 

 Routine SETGRP: Setting up the symmetry group for a 
 hexagonal supercell.


 Subroutine GETGRP returns: Found  1 space group operations
 (whereof  1 operations were pure point group operations)
 out of a pool of 24 trial point group operations.


The dynamic configuration has the point symmetry C_1 .


 Subroutine INISYM returns: Found  1 space group operations
 (whereof  1 operations are pure point group operations),
 and found     1 'primitive' translations


----------------------------------------------------------------------------------------

                                     Primitive cell                                     

  volume of cell :     597.1925

  direct lattice vectors                    reciprocal lattice vectors
     5.614427843  0.000000000  0.000000000     0.178112539 -0.102833323  0.000000000
     2.807213921  4.862237139  0.000000000     0.000000000  0.205666645  0.000000000
     0.000000000  0.000000000 21.876241710     0.000000000  0.000000000  0.045711691

  length of vectors
     5.614427843  5.614427842 21.876241710     0.205666645  0.205666645  0.045711691

  position of ions in fractional coordinates (direct lattice)
     0.000000000  0.000000000  0.342837682
     0.500000000  0.500000000  0.342837682
     0.500000000  0.000000000  0.342837682
     1.000000000  0.500000000  0.342837682
     0.666666667  0.666666667  0.447612561
     0.166666667  0.166666667  0.447612561
     0.166666667  0.666666667  0.447612561
     0.666666667  0.166666667  0.447612561
     0.333342723  0.333259269  0.552680734
     0.833399498  0.833322361  0.554114806
     0.833509347  0.333259528  0.552673874
     0.333343208  0.833430444  0.552675653
     0.998364904  0.998265760  0.658942166
     0.500055962  0.499963001  0.658015724
     0.503456886  0.998282222  0.658941331
     0.998385593  0.503332352  0.658944595
     0.166730161  0.166577264  0.710023164
     0.166829680  0.166467795  0.760242238

  ion indices of the primitive-cell ions
   primitive index   ion index
                 1           1
                 2           2
                 3           3
                 4           4
                 5           5
                 6           6
                 7           7
                 8           8
                 9           9
                10          10
                11          11
                12          12
                13          13
                14          14
                15          15
                16          16
                17          17
                18          18

----------------------------------------------------------------------------------------

 
 
 KPOINTS:  Automatic mesh        #Titlle/comment  

Automatic generation of k-mesh.
 Grid dimensions read from file:
 generate k-points for:    5    5    1

 Generating k-lattice:

  Cartesian coordinates                     Fractional coordinates (reciprocal lattice)
     0.035622508 -0.020566665  0.000000000     0.200000000 -0.000000000  0.000000000
     0.000000000  0.041133329  0.000000000     0.000000000  0.200000000  0.000000000
     0.000000000  0.000000000  0.045711691     0.000000000  0.000000000  1.000000000

  Length of vectors
     0.041133329  0.041133329  0.045711691

  Shift w.r.t. Gamma in fractional coordinates (k-lattice)
     0.000000000  0.000000000  0.000000000

 
 Subroutine IBZKPT returns following result:
 ===========================================
 
 Found     13 irreducible k-points:
 
 Following reciprocal coordinates:
            Coordinates               Weight
  0.000000  0.000000  0.000000      1.000000
  0.200000  0.000000  0.000000      2.000000
  0.200000  0.200000  0.000000      2.000000
  0.000000  0.200000  0.000000      2.000000
  0.400000 -0.000000  0.000000      2.000000
  0.400000  0.400000  0.000000      2.000000
  0.000000  0.400000  0.000000      2.000000
  0.400000  0.200000  0.000000      2.000000
  0.200000  0.400000  0.000000      2.000000
 -0.200000  0.200000  0.000000      2.000000
 -0.400000  0.200000  0.000000      2.000000
  0.400000 -0.400000  0.000000      2.000000
 -0.200000  0.400000  0.000000      2.000000
 
 Following cartesian coordinates:
            Coordinates               Weight
  0.000000  0.000000  0.000000      1.000000
  0.035623 -0.020567  0.000000      2.000000
  0.035623  0.020567  0.000000      2.000000
  0.000000  0.041133  0.000000      2.000000
  0.071245 -0.041133  0.000000      2.000000
  0.071245  0.041133  0.000000      2.000000
  0.000000  0.082267  0.000000      2.000000
  0.071245  0.000000  0.000000      2.000000
  0.035623  0.061700  0.000000      2.000000
 -0.035623  0.061700  0.000000      2.000000
 -0.071245  0.082267  0.000000      2.000000
  0.071245 -0.123400  0.000000      2.000000
 -0.035623  0.102833  0.000000      2.000000
 


--------------------------------------------------------------------------------------------------------




 Dimension of arrays:
   k-points           NKPTS =     13   k-points in BZ     NKDIM =     13   number of bands    NBANDS=    100
   number of dos      NEDOS =    301   number of ions     NIONS =     18
   non local maximal  LDIM  =      6   non local SUM 2l+1 LMDIM =     18
   total plane-waves  NPLWV =  84672
   max r-space proj   IRMAX =   2088   max aug-charges    IRDMAX=   8786
   dimension x,y,z NGX =    28 NGY =   28 NGZ =  108
   dimension x,y,z NGXF=    56 NGYF=   56 NGZF=  216
   support grid    NGXF=    56 NGYF=   56 NGZF=  216
   ions per type =              16   1   1
   NGX,Y,Z   is equivalent  to a cutoff of   8.29,  8.29,  8.21 a.u.
   NGXF,Y,Z  is equivalent  to a cutoff of  16.58, 16.58, 16.41 a.u.

 SYSTEM =  unknown system                          
 POSCAR =  Pt  C  H                                

 Startparameter for this run:
   NWRITE =      2    write-flag & timer
   PREC   = normal    normal or accurate (medium, high low for compatibility)
   ISTART =      0    job   : 0-new  1-cont  2-samecut
   ICHARG =      2    charge: 1-file 2-atom 10-const
   ISPIN  =      1    spin polarized calculation?
   LNONCOLLINEAR =      F non collinear calculations
   LSORBIT =      F    spin-orbit coupling
   INIWAV =      1    electr: 0-lowe 1-rand  2-diag
   LASPH  =      F    aspherical Exc in radial PAW
 Electronic Relaxation 1
   ENCUT  =  400.0 eV  29.40 Ry    5.42 a.u.   9.16  9.16 35.67*2*pi/ulx,y,z
   ENINI  =  400.0     initial cutoff
   ENAUG  =  644.9 eV  augmentation charge cutoff
   NELM   =    200;   NELMIN=  2; NELMDL= -5     # of ELM steps 
   EDIFF  = 0.1E-05   stopping-criterion for ELM
   LREAL  =      T    real-space projection
   NLSPLINE    = F    spline interpolate recip. space projectors
   LCOMPAT=      F    compatible to vasp.4.4
   GGA_COMPAT  = T    GGA compatible to vasp.4.4-vasp.4.6
   LMAXPAW     = -100 max onsite density
   LMAXMIX     =    2 max onsite mixed and CHGCAR
   VOSKOWN=      0    Vosko Wilk Nusair interpolation
   ROPT   =   -0.00050  -0.00050  -0.00050
 Ionic relaxation
   EDIFFG = -.3E-01   stopping-criterion for IOM
   NSW    =    200    number of steps for IOM
   NBLOCK =      1;   KBLOCK =    200    inner block; outer block 
   IBRION =      2    ionic relax: 0-MD 1-quasi-New 2-CG
   NFREE  =      1    steps in history (QN), initial steepest desc. (CG)
   ISIF   =      2    stress and relaxation
   IWAVPR =     11    prediction:  0-non 1-charg 2-wave 3-comb
   ISYM   =      2    0-nonsym 1-usesym 2-fastsym
   LCORR  =      T    Harris-Foulkes like correction to forces

   POTIM  = 0.5000    time-step for ionic-motion
   TEIN   =    0.0    initial temperature
   TEBEG  =    0.0;   TEEND  =   0.0 temperature during run
   SMASS  =  -3.00    Nose mass-parameter (am)
   estimated Nose-frequenzy (Omega)   =  0.10E-29 period in steps = 0.13E+47 mass=  -0.720E-27a.u.
   SCALEE = 1.0000    scale energy and forces
   NPACO  =    256;   APACO  = 16.0  distance and # of slots for P.C.
   PSTRESS=    0.0 pullay stress

  Mass of Ions in am
   POMASS = 195.08 12.01  1.00
  Ionic Valenz
   ZVAL   =  10.00  4.00  1.00
  Atomic Wigner-Seitz radii
   RWIGS  =  -1.00 -1.00 -1.00
  virtual crystal weights 
   VCA    =   1.00  1.00  1.00
   NELECT =     165.0000    total number of electrons
   NUPDOWN=      -1.0000    fix difference up-down

 DOS related values:
   EMIN   =  10.00;   EMAX   =-10.00  energy-range for DOS
   EFERMI =   0.00
   ISMEAR =    -1;   SIGMA  =   0.03  broadening in eV -4-tet -1-fermi 0-gaus

 Electronic relaxation 2 (details)
   IALGO  =     68    algorithm
   LDIAG  =      T    sub-space diagonalisation (order eigenvalues)
   LSUBROT=      F    optimize rotation matrix (better conditioning)
   TURBO    =      0    0=normal 1=particle mesh
   IRESTART =      0    0=no restart 2=restart with 2 vectors
   NREBOOT  =      0    no. of reboots
   NMIN     =      0    reboot dimension
   EREF     =   0.00    reference energy to select bands
   IMIX   =      4    mixing-type and parameters
     AMIX     =   0.40;   BMIX     =  1.00
     AMIX_MAG =   1.60;   BMIX_MAG =  1.00
     AMIN     =   0.10
     WC   =   100.;   INIMIX=   1;  MIXPRE=   1;  MAXMIX= -45

 Intra band minimization:
   WEIMIN = 0.0010     energy-eigenvalue tresh-hold
   EBREAK =  0.25E-08  absolut break condition
   DEPER  =   0.30     relativ break condition  

   TIME   =   0.40     timestep for ELM

  volume/ion in A,a.u.               =      33.18       223.89
  Fermi-wavevector in a.u.,A,eV,Ry     =   1.066264  2.014947 15.468717  1.136919
  Thomas-Fermi vector in A             =   2.201842
 
 Write flags
   LWAVE        =      F    write WAVECAR
   LDOWNSAMPLE  =      F    k-point downsampling of WAVECAR
   LCHARG       =      F    write CHGCAR
   LVTOT        =      F    write LOCPOT, total local potential
   LVHAR        =      F    write LOCPOT, Hartree potential only
   LELF         =      F    write electronic localiz. function (ELF)
   LORBIT       =      0    0 simple, 1 ext, 2 COOP (PROOUT), +10 PAW based schemes


 Dipole corrections
   LMONO  =      F    monopole corrections only (constant potential shift)
   LDIPOL =      F    correct potential (dipole corrections)
   IDIPOL =      0    1-x, 2-y, 3-z, 4-all directions 
   EPSILON=  1.0000000 bulk dielectric constant

 Exchange correlation treatment:
   GGA     =    PE    GGA type
   LEXCH   =     8    internal setting for exchange type
   VOSKOWN=      0    Vosko Wilk Nusair interpolation
   LHFCALC =     F    Hartree Fock is set to
   LHFONE  =     F    Hartree Fock one center treatment
   AEXX    =    0.0000 exact exchange contribution

 Linear response parameters
   LEPSILON=     F    determine dielectric tensor
   LRPA    =     F    only Hartree local field effects (RPA)
   LNABLA  =     F    use nabla operator in PAW spheres
   LVEL    =     F    velocity operator in full k-point grid
   LINTERFAST=   F  fast interpolation
   KINTER  =     0    interpolate to denser k-point grid
   CSHIFT  =0.1000    complex shift for real part using Kramers Kronig
   OMEGAMAX=  -1.0    maximum frequency
   DEG_THRESHOLD= 0.2000000E-02 threshold for treating states as degnerate
   RTIME   =   -0.100 relaxation time in fs
  (WPLASMAI=    0.000 imaginary part of plasma frequency in eV, 0.658/RTIME)
   DFIELD  = 0.0000000 0.0000000 0.0000000 field for delta impulse in time
 
 Orbital magnetization related:
   ORBITALMAG=     F  switch on orbital magnetization
   LCHIMAG   =     F  perturbation theory with respect to B field
   DQ        =  0.001000  dq finite difference perturbation B field
   LLRAUG    =     F  two centre corrections for induced B field



--------------------------------------------------------------------------------------------------------


 conjugate gradient relaxation of ions
 charge density and potential will be updated during run
 non-spin polarized calculation
 RMM-DIIS sequential band-by-band and
  variant of blocked Davidson during initial phase
 perform sub-space diagonalisation
    before iterative eigenvector-optimisation
 modified Broyden-mixing scheme, WC =      100.0
 initial mixing is a Kerker type mixing with AMIX =  0.4000 and BMIX =      1.0000
 Hartree-type preconditioning will be used
 using additional bands           17
 real space projection scheme for non local part
 use partial core corrections
 calculate Harris-corrections to forces 
   (improved forces if not selfconsistent)
 use gradient corrections 
 use of overlap-Matrix (Vanderbilt PP)
 Fermi-smearing in eV        SIGMA  =   0.03


--------------------------------------------------------------------------------------------------------


  energy-cutoff  :      400.00
  volume of cell :      597.19
      direct lattice vectors                 reciprocal lattice vectors
     5.614427843  0.000000000  0.000000000     0.178112539 -0.102833323  0.000000000
     2.807213921  4.862237139  0.000000000     0.000000000  0.205666645  0.000000000
     0.000000000  0.000000000 21.876241710     0.000000000  0.000000000  0.045711691

  length of vectors
     5.614427843  5.614427842 21.876241710     0.205666645  0.205666645  0.045711691


 
 k-points in units of 2pi/SCALE and weight:  Automatic mesh        #Titlle/comment  
   0.00000000  0.00000000  0.00000000       0.040
   0.03562251 -0.02056666  0.00000000       0.080
   0.03562251  0.02056666  0.00000000       0.080
   0.00000000  0.04113333  0.00000000       0.080
   0.07124502 -0.04113333  0.00000000       0.080
   0.07124502  0.04113333  0.00000000       0.080
   0.00000000  0.08226666  0.00000000       0.080
   0.07124502  0.00000000  0.00000000       0.080
   0.03562251  0.06169999  0.00000000       0.080
  -0.03562251  0.06169999  0.00000000       0.080
  -0.07124502  0.08226666  0.00000000       0.080
   0.07124502 -0.12339999  0.00000000       0.080
  -0.03562251  0.10283332  0.00000000       0.080
 
 k-points in reciprocal lattice and weights:  Automatic mesh        #Titlle/comment  
   0.00000000  0.00000000  0.00000000       0.040
   0.20000000  0.00000000  0.00000000       0.080
   0.20000000  0.20000000  0.00000000       0.080
   0.00000000  0.20000000  0.00000000       0.080
   0.40000000 -0.00000000  0.00000000       0.080
   0.40000000  0.40000000  0.00000000       0.080
   0.00000000  0.40000000  0.00000000       0.080
   0.40000000  0.20000000  0.00000000       0.080
   0.20000000  0.40000000  0.00000000       0.080
  -0.20000000  0.20000000  0.00000000       0.080
  -0.40000000  0.20000000  0.00000000       0.080
   0.40000000 -0.40000000  0.00000000       0.080
  -0.20000000  0.40000000  0.00000000       0.080
 
 position of ions in fractional coordinates (direct lattice) 
   0.00000000  0.00000000  0.34283768
   0.50000000  0.50000000  0.34283768
   0.50000000  0.00000000  0.34283768
   0.00000000  0.50000000  0.34283768
   0.66666667  0.66666667  0.44761256
   0.16666667  0.16666667  0.44761256
   0.16666667  0.66666667  0.44761256
   0.66666667  0.16666667  0.44761256
   0.33334272  0.33325927  0.55268073
   0.83339950  0.83332236  0.55411481
   0.83350935  0.33325953  0.55267387
   0.33334321  0.83343044  0.55267565
   0.99836490  0.99826576  0.65894217
   0.50005596  0.49996300  0.65801572
   0.50345689  0.99828222  0.65894133
   0.99838559  0.50333235  0.65894459
   0.16673016  0.16657726  0.71002316
   0.16682968  0.16646780  0.76024224
 
 position of ions in cartesian coordinates  (Angst):
   0.00000000  0.00000000  7.50000000
   4.21082088  2.43111857  7.50000000
   2.80721392  0.00000000  7.50000000
   1.40360696  2.43111857  7.50000000
   5.61442784  3.24149143  9.79208057
   1.40360696  0.81037286  9.79208057
   2.80721392  3.24149143  9.79208057
   4.21082088  0.81037286  9.79208057
   2.80705873  1.62038559 12.09057733
   7.01837548  4.05181093 12.12194944
   5.61520887  1.62038685 12.09042725
   4.21114894  4.05233646 12.09046618
   8.40759325  4.85380485 14.41517810
   4.21103121  2.43093867 14.39491103
   5.62901411  4.85388490 14.41515982
   7.01832546  2.44732126 14.41523123
   1.40371247  0.80993816 15.53263835
   1.40396391  0.80940590 16.63124297
 


--------------------------------------------------------------------------------------------------------


 k-point   1 :   0.0000 0.0000 0.0000  plane waves:   10745
 k-point   2 :   0.2000 0.0000 0.0000  plane waves:   10818
 k-point   3 :   0.2000 0.2000 0.0000  plane waves:   10818
 k-point   4 :   0.0000 0.2000 0.0000  plane waves:   10818
 k-point   5 :   0.4000-0.0000 0.0000  plane waves:   10870
 k-point   6 :   0.4000 0.4000 0.0000  plane waves:   10870
 k-point   7 :   0.0000 0.4000 0.0000  plane waves:   10870
 k-point   8 :   0.4000 0.2000 0.0000  plane waves:   10845
 k-point   9 :   0.2000 0.4000 0.0000  plane waves:   10845
 k-point  10 :  -0.2000 0.2000 0.0000  plane waves:   10845
 k-point  11 :  -0.4000 0.2000 0.0000  plane waves:   10869
 k-point  12 :   0.4000-0.4000 0.0000  plane waves:   10869
 k-point  13 :  -0.2000 0.4000 0.0000  plane waves:   10869

 maximum and minimum number of plane-waves per node :      2741     2675

 maximum number of plane-waves:     10870
 maximum index in each direction: 
   IXMAX=    9   IYMAX=    9   IZMAX=   35
   IXMIN=   -9   IYMIN=   -9   IZMIN=  -35


 real space projection operators:
  total allocation   :       4574.02 KBytes
  max/ min on nodes  :       1151.70       1135.41


 parallel 3D FFT for wavefunctions:
    minimum data exchange during FFTs selected (reduces bandwidth)
 parallel 3D FFT for charge:
    minimum data exchange during FFTs selected (reduces bandwidth)


 total amount of memory used by VASP MPI-rank0    52920. kBytes
=======================================================================

   base      :      30000. kBytes
   nonlr-proj:       2041. kBytes
   fftplans  :       2234. kBytes
   grid      :       3967. kBytes
   one-center:         77. kBytes
   wavefun   :      14601. kBytes
 
     INWAV:  cpu time    0.0000: real time    0.0000
 Broyden mixing: mesh for mixing (old mesh)
   NGX = 19   NGY = 19   NGZ = 71
  (NGX  = 56   NGY  = 56   NGZ  =216)
  gives a total of  25631 points

 initial charge density was supplied:
 charge density of overlapping atoms calculated
 number of electron     165.0000000 magnetization 
 keeping initial charge density in first step


--------------------------------------------------------------------------------------------------------


 Maximum index for non-local projection operator          509
 Maximum index for augmentation-charges          759 (set IRDMAX)


--------------------------------------------------------------------------------------------------------


 First call to EWALD:  gamma=   0.210
 Maximum number of real-space cells 4x 4x 1
 Maximum number of reciprocal cells 2x 2x 6

    FEWALD:  cpu time    0.0016: real time    0.0020


--------------------------------------- Iteration      1(   1)  ---------------------------------------


    POTLOK:  cpu time    0.0272: real time    0.0360
    SETDIJ:  cpu time    0.0060: real time    0.0090
     EDDAV:  cpu time    2.6898: real time    2.7231
       DOS:  cpu time    0.0012: real time    0.0018
    --------------------------------------------
      LOOP:  cpu time    2.7241: real time    2.7698

 eigenvalue-minimisations  :  2624
 total energy-change (2. order) : 0.9900097E+03  (-0.6529626E+04)
 number of electron     165.0000000 magnetization 
 augmentation part      165.0000000 magnetization 

 Free energy of the ion-electron system (eV)
  ---------------------------------------------------
  alpha Z        PSCENC =       426.56989018
  Ewald energy   TEWEN  =     41495.32482747
  -Hartree energ DENC   =    -54144.58266314
  -exchange      EXHF   =         0.00000000
  -V(xc)+E(xc)   XCENC  =        69.81835196
  PAW double counting   =     11248.63264067   -10796.67907711
  entropy T*S    EENTRO =        -0.01550482
  eigenvalues    EBANDS =       865.54413975
  atomic energy  EATOM  =     11825.39708547
  Solvation  Ediel_sol  =         0.00000000
  ---------------------------------------------------
  free energy    TOTEN  =       990.00969043 eV

  energy without entropy =      990.02519525  energy(sigma->0) =      990.01744284


--------------------------------------------------------------------------------------------------------




--------------------------------------- Iteration      1(   2)  ---------------------------------------


     EDDAV:  cpu time    3.0191: real time    3.0240
       DOS:  cpu time    0.0004: real time    0.0004
    --------------------------------------------
      LOOP:  cpu time    3.0195: real time    3.0244

 eigenvalue-minimisations  :  3084
 total energy-change (2. order) :-0.1031368E+04  (-0.9570031E+03)
 number of electron     165.0000000 magnetization 
 augmentation part      165.0000000 magnetization 

 Free energy of the ion-electron system (eV)
  ---------------------------------------------------
  alpha Z        PSCENC =       426.56989018
  Ewald energy   TEWEN  =     41495.32482747
  -Hartree energ DENC   =    -54144.58266314
  -exchange      EXHF   =         0.00000000
  -V(xc)+E(xc)   XCENC  =        69.81835196
  PAW double counting   =     11248.63264067   -10796.67907711
  entropy T*S    EENTRO =        -0.02838227
  eigenvalues    EBANDS =      -165.81106951
  atomic energy  EATOM  =     11825.39708547
  Solvation  Ediel_sol  =         0.00000000
  ---------------------------------------------------
  free energy    TOTEN  =       -41.35839628 eV

  energy without entropy =      -41.33001402  energy(sigma->0) =      -41.34420515


--------------------------------------------------------------------------------------------------------




--------------------------------------- Iteration      1(   3)  ---------------------------------------


     EDDAV:  cpu time    3.0042: real time    3.0064
       DOS:  cpu time    0.0004: real time    0.0004
    --------------------------------------------
      LOOP:  cpu time    3.0046: real time    3.0068

 eigenvalue-minimisations  :  3064
 total energy-change (2. order) :-0.6935739E+02  (-0.6303257E+02)
 number of electron     165.0000000 magnetization 
 augmentation part      165.0000000 magnetization 

 Free energy of the ion-electron system (eV)
  ---------------------------------------------------
  alpha Z        PSCENC =       426.56989018
  Ewald energy   TEWEN  =     41495.32482747
  -Hartree energ DENC   =    -54144.58266314
  -exchange      EXHF   =         0.00000000
  -V(xc)+E(xc)   XCENC  =        69.81835196
  PAW double counting   =     11248.63264067   -10796.67907711
  entropy T*S    EENTRO =        -0.05715318
  eigenvalues    EBANDS =      -235.13969136
  atomic energy  EATOM  =     11825.39708547
  Solvation  Ediel_sol  =         0.00000000
  ---------------------------------------------------
  free energy    TOTEN  =      -110.71578904 eV

  energy without entropy =     -110.65863586  energy(sigma->0) =     -110.68721245


--------------------------------------------------------------------------------------------------------




--------------------------------------- Iteration      1(   4)  ---------------------------------------


     EDDAV:  cpu time    3.1980: real time    3.1990
       DOS:  cpu time    0.0004: real time    0.0004
    --------------------------------------------
      LOOP:  cpu time    3.1984: real time    3.1994

 eigenvalue-minimisations  :  3328
 total energy-change (2. order) :-0.3022440E+01  (-0.2934710E+01)
 number of electron     165.0000000 magnetization 
 augmentation part      165.0000000 magnetization 

 Free energy of the ion-electron system (eV)
  ---------------------------------------------------
  alpha Z        PSCENC =       426.56989018
  Ewald energy   TEWEN  =     41495.32482747
  -Hartree energ DENC   =    -54144.58266314
  -exchange      EXHF   =         0.00000000
  -V(xc)+E(xc)   XCENC  =        69.81835196
  PAW double counting   =     11248.63264067   -10796.67907711
  entropy T*S    EENTRO =        -0.06048119
  eigenvalues    EBANDS =      -238.15880354
  atomic energy  EATOM  =     11825.39708547
  Solvation  Ediel_sol  =         0.00000000
  ---------------------------------------------------
  free energy    TOTEN  =      -113.73822923 eV

  energy without entropy =     -113.67774805  energy(sigma->0) =     -113.70798864


--------------------------------------------------------------------------------------------------------




--------------------------------------- Iteration      1(   5)  ---------------------------------------


     EDDAV:  cpu time    3.1219: real time    3.1227
       DOS:  cpu time    0.0004: real time    0.0004
    CHARGE:  cpu time    0.1178: real time    0.1190
    MIXING:  cpu time    0.0016: real time    0.0027
    --------------------------------------------
      LOOP:  cpu time    3.2417: real time    3.2448

 eigenvalue-minimisations  :  3220
 total energy-change (2. order) :-0.8596695E-01  (-0.8579489E-01)
 number of electron     165.0000022 magnetization 
 augmentation part       46.3878100 magnetization 

 Broyden mixing:
  rms(total) = 0.44893E+01    rms(broyden)= 0.44892E+01
  rms(prec ) = 0.45715E+01
  weight for this iteration     100.00

 Free energy of the ion-electron system (eV)
  ---------------------------------------------------
  alpha Z        PSCENC =       426.56989018
  Ewald energy   TEWEN  =     41495.32482747
  -Hartree energ DENC   =    -54144.58266314
  -exchange      EXHF   =         0.00000000
  -V(xc)+E(xc)   XCENC  =        69.81835196
  PAW double counting   =     11248.63264067   -10796.67907711
  entropy T*S    EENTRO =        -0.06050110
  eigenvalues    EBANDS =      -238.24475057
  atomic energy  EATOM  =     11825.39708547
  Solvation  Ediel_sol  =         0.00000000
  ---------------------------------------------------
  free energy    TOTEN  =      -113.82419618 eV

  energy without entropy =     -113.76369508  energy(sigma->0) =     -113.79394563


--------------------------------------------------------------------------------------------------------




--------------------------------------- Iteration      1(   6)  ---------------------------------------


    POTLOK:  cpu time    0.0254: real time    0.0254
    SETDIJ:  cpu time    0.0052: real time    0.0052
    EDDIAG:  cpu time    0.4047: real time    0.4064
  RMM-DIIS:  cpu time    1.4292: real time    1.4294
    ORTHCH:  cpu time    0.0669: real time    0.0669
       DOS:  cpu time    0.0004: real time    0.0004
    CHARGE:  cpu time    0.1134: real time    0.1134
    MIXING:  cpu time    0.0020: real time    0.0052
    --------------------------------------------
      LOOP:  cpu time    2.0472: real time    2.0524

 eigenvalue-minimisations  :  2610
 total energy-change (2. order) : 0.6167554E+01  (-0.2464607E+01)
 number of electron     165.0000043 magnetization 
 augmentation part       49.6259523 magnetization 

 Broyden mixing:
  rms(total) = 0.29233E+01    rms(broyden)= 0.29232E+01
  rms(prec ) = 0.30825E+01
  weight for this iteration     100.00

 eigenvalues of (default mixing * dielectric matrix)
  average eigenvalue GAMMA=   1.2822
  1.2822

 Free energy of the ion-electron system (eV)
  ---------------------------------------------------
  alpha Z        PSCENC =       426.56989018
  Ewald energy   TEWEN  =     41495.32482747
  -Hartree energ DENC   =    -53952.21081869
  -exchange      EXHF   =         0.00000000
  -V(xc)+E(xc)   XCENC  =        66.13816623
  PAW double counting   =     12491.78162998   -12064.01901838
  entropy T*S    EENTRO =        -0.05827167
  eigenvalues    EBANDS =      -396.58013264
  atomic energy  EATOM  =     11825.39708547
  Solvation  Ediel_sol  =         0.00000000
  ---------------------------------------------------
  free energy    TOTEN  =      -107.65664205 eV

  energy without entropy =     -107.59837038  energy(sigma->0) =     -107.62750621


--------------------------------------------------------------------------------------------------------




--------------------------------------- Iteration      1(   7)  ---------------------------------------


    POTLOK:  cpu time    0.0223: real time    0.0223
    SETDIJ:  cpu time    0.0048: real time    0.0048
    EDDIAG:  cpu time    0.4007: real time    0.4009
  RMM-DIIS:  cpu time    1.4064: real time    1.4065
    ORTHCH:  cpu time    0.0670: real time    0.0670
       DOS:  cpu time    0.0004: real time    0.0004
    CHARGE:  cpu time    0.1154: real time    0.1154
    MIXING:  cpu time    0.0013: real time    0.0013
    --------------------------------------------
      LOOP:  cpu time    2.0182: real time    2.0186

 eigenvalue-minimisations  :  2615
 total energy-change (2. order) :-0.1623039E+02  (-0.2567453E+01)
 number of electron     164.9999996 magnetization 
 augmentation part       48.3238542 magnetization 

 Broyden mixing:
  rms(total) = 0.38222E+01    rms(broyden)= 0.38221E+01
  rms(prec ) = 0.45756E+01
  weight for this iteration     100.00

 eigenvalues of (default mixing * dielectric matrix)
  average eigenvalue GAMMA=   1.0954
  1.8954  0.2953

 Free energy of the ion-electron system (eV)
  ---------------------------------------------------
  alpha Z        PSCENC =       426.56989018
  Ewald energy   TEWEN  =     41495.32482747
  -Hartree energ DENC   =    -54092.25255927
  -exchange      EXHF   =         0.00000000
  -V(xc)+E(xc)   XCENC  =        65.07484157
  PAW double counting   =     13476.70121019   -13058.31818778
  entropy T*S    EENTRO =        -0.04735496
  eigenvalues    EBANDS =      -262.33678278
  atomic energy  EATOM  =     11825.39708547
  Solvation  Ediel_sol  =         0.00000000
  ---------------------------------------------------
  free energy    TOTEN  =      -123.88702990 eV

  energy without entropy =     -123.83967494  energy(sigma->0) =     -123.86335242


--------------------------------------------------------------------------------------------------------




--------------------------------------- Iteration      1(   8)  ---------------------------------------


    POTLOK:  cpu time    0.0233: real time    0.0234
    SETDIJ:  cpu time    0.0050: real time    0.0050
    EDDIAG:  cpu time    0.4032: real time    0.4034
  RMM-DIIS:  cpu time    1.4276: real time    1.4278
    ORTHCH:  cpu time    0.0674: real time    0.0674
       DOS:  cpu time    0.0004: real time    0.0004
    CHARGE:  cpu time    0.1167: real time    0.1167
    MIXING:  cpu time    0.0014: real time    0.0014
    --------------------------------------------
      LOOP:  cpu time    2.0451: real time    2.0456

 eigenvalue-minimisations  :  2605
 total energy-change (2. order) : 0.1544540E+02  (-0.1298063E+01)
 number of electron     165.0000030 magnetization 
 augmentation part       49.7223945 magnetization 

 Broyden mixing:
  rms(total) = 0.16056E+01    rms(broyden)= 0.16055E+01
  rms(prec ) = 0.22360E+01
  weight for this iteration     100.00

 eigenvalues of (default mixing * dielectric matrix)
  average eigenvalue GAMMA=   0.9749
  2.0828  0.5558  0.2860

 Free energy of the ion-electron system (eV)
  ---------------------------------------------------
  alpha Z        PSCENC =       426.56989018
  Ewald energy   TEWEN  =     41495.32482747
  -Hartree energ DENC   =    -53975.18543912
  -exchange      EXHF   =         0.00000000
  -V(xc)+E(xc)   XCENC  =        64.48689567
  PAW double counting   =     14224.85165492   -13815.55232360
  entropy T*S    EENTRO =        -0.05213058
  eigenvalues    EBANDS =      -354.28209226
  atomic energy  EATOM  =     11825.39708547
  Solvation  Ediel_sol  =         0.00000000
  ---------------------------------------------------
  free energy    TOTEN  =      -108.44163185 eV

  energy without entropy =     -108.38950127  energy(sigma->0) =     -108.41556656


--------------------------------------------------------------------------------------------------------




--------------------------------------- Iteration      1(   9)  ---------------------------------------


    POTLOK:  cpu time    0.0240: real time    0.0241
    SETDIJ:  cpu time    0.0051: real time    0.0051
    EDDIAG:  cpu time    0.4023: real time    0.4026
  RMM-DIIS:  cpu time    1.4137: real time    1.4139
    ORTHCH:  cpu time    0.0667: real time    0.0667
       DOS:  cpu time    0.0004: real time    0.0004
    CHARGE:  cpu time    0.1154: real time    0.1156
    MIXING:  cpu time    0.0013: real time    0.0013
    --------------------------------------------
      LOOP:  cpu time    2.0289: real time    2.0297

 eigenvalue-minimisations  :  2610
 total energy-change (2. order) :-0.7068654E+01  (-0.6290388E+00)
 number of electron     165.0000028 magnetization 
 augmentation part       49.7423341 magnetization 

 Broyden mixing:
  rms(total) = 0.25646E+01    rms(broyden)= 0.25645E+01
  rms(prec ) = 0.39284E+01
  weight for this iteration     100.00

 eigenvalues of (default mixing * dielectric matrix)
  average eigenvalue GAMMA=   0.8860
  2.2626  0.8405  0.2943  0.1467

 Free energy of the ion-electron system (eV)
  ---------------------------------------------------
  alpha Z        PSCENC =       426.56989018
  Ewald energy   TEWEN  =     41495.32482747
  -Hartree energ DENC   =    -53980.44011369
  -exchange      EXHF   =         0.00000000
  -V(xc)+E(xc)   XCENC  =        64.46628864
  PAW double counting   =     14424.12401231   -14016.74191425
  entropy T*S    EENTRO =        -0.04125175
  eigenvalues    EBANDS =      -354.16911000
  atomic energy  EATOM  =     11825.39708547
  Solvation  Ediel_sol  =         0.00000000
  ---------------------------------------------------
  free energy    TOTEN  =      -115.51028562 eV

  energy without entropy =     -115.46903388  energy(sigma->0) =     -115.48965975


--------------------------------------------------------------------------------------------------------




--------------------------------------- Iteration      1(  10)  ---------------------------------------


    POTLOK:  cpu time    0.0231: real time    0.0232
    SETDIJ:  cpu time    0.0050: real time    0.0050
    EDDIAG:  cpu time    0.4032: real time    0.4033
  RMM-DIIS:  cpu time    1.4165: real time    1.4186
    ORTHCH:  cpu time    0.0666: real time    0.0666
       DOS:  cpu time    0.0004: real time    0.0004
    CHARGE:  cpu time    0.1169: real time    0.1171
    MIXING:  cpu time    0.0014: real time    0.0014
    --------------------------------------------
      LOOP:  cpu time    2.0332: real time    2.0356

 eigenvalue-minimisations  :  2604
 total energy-change (2. order) : 0.7872397E+01  (-0.3684382E+00)
 number of electron     165.0000022 magnetization 
 augmentation part       49.8586146 magnetization 

 Broyden mixing:
  rms(total) = 0.14620E+01    rms(broyden)= 0.14619E+01
  rms(prec ) = 0.17214E+01
  weight for this iteration     100.00

 eigenvalues of (default mixing * dielectric matrix)
  average eigenvalue GAMMA=   0.7894
  2.3075  0.9389  0.3219  0.2277  0.1509

 Free energy of the ion-electron system (eV)
  ---------------------------------------------------
  alpha Z        PSCENC =       426.56989018
  Ewald energy   TEWEN  =     41495.32482747
  -Hartree energ DENC   =    -53991.31387702
  -exchange      EXHF   =         0.00000000
  -V(xc)+E(xc)   XCENC  =        64.48168698
  PAW double counting   =     14626.99690305   -14221.39595292
  entropy T*S    EENTRO =        -0.03874784
  eigenvalues    EBANDS =      -333.65970420
  atomic energy  EATOM  =     11825.39708547
  Solvation  Ediel_sol  =         0.00000000
  ---------------------------------------------------
  free energy    TOTEN  =      -107.63788883 eV

  energy without entropy =     -107.59914099  energy(sigma->0) =     -107.61851491


--------------------------------------------------------------------------------------------------------




--------------------------------------- Iteration      1(  11)  ---------------------------------------


    POTLOK:  cpu time    0.0232: real time    0.0233
    SETDIJ:  cpu time    0.0048: real time    0.0048
    EDDIAG:  cpu time    0.4003: real time    0.4004
  RMM-DIIS:  cpu time    1.4291: real time    1.4293
    ORTHCH:  cpu time    0.0667: real time    0.0667
       DOS:  cpu time    0.0004: real time    0.0004
    CHARGE:  cpu time    0.1135: real time    0.1137
    MIXING:  cpu time    0.0016: real time    0.0041
    --------------------------------------------
      LOOP:  cpu time    2.0397: real time    2.0427

 eigenvalue-minimisations  :  2610
 total energy-change (2. order) : 0.1665869E+01  (-0.2037478E+00)
 number of electron     165.0000021 magnetization 
 augmentation part       49.9380089 magnetization 

 Broyden mixing:
  rms(total) = 0.83685E+00    rms(broyden)= 0.83681E+00
  rms(prec ) = 0.11281E+01
  weight for this iteration     100.00

 eigenvalues of (default mixing * dielectric matrix)
  average eigenvalue GAMMA=   0.7191
  2.1398  0.9941  0.4800  0.2858  0.2858  0.1292

 Free energy of the ion-electron system (eV)
  ---------------------------------------------------
  alpha Z        PSCENC =       426.56989018
  Ewald energy   TEWEN  =     41495.32482747
  -Hartree energ DENC   =    -53993.81105236
  -exchange      EXHF   =         0.00000000
  -V(xc)+E(xc)   XCENC  =        64.56149387
  PAW double counting   =     14670.07838521   -14264.70438765
  entropy T*S    EENTRO =        -0.05399083
  eigenvalues    EBANDS =      -329.33427154
  atomic energy  EATOM  =     11825.39708547
  Solvation  Ediel_sol  =         0.00000000
  ---------------------------------------------------
  free energy    TOTEN  =      -105.97202018 eV

  energy without entropy =     -105.91802935  energy(sigma->0) =     -105.94502477


--------------------------------------------------------------------------------------------------------




--------------------------------------- Iteration      1(  12)  ---------------------------------------


    POTLOK:  cpu time    0.0232: real time    0.0233
    SETDIJ:  cpu time    0.0049: real time    0.0049
    EDDIAG:  cpu time    0.4027: real time    0.4027
  RMM-DIIS:  cpu time    1.4289: real time    1.4291
    ORTHCH:  cpu time    0.0668: real time    0.0668
       DOS:  cpu time    0.0004: real time    0.0004
    CHARGE:  cpu time    0.1150: real time    0.1152
    MIXING:  cpu time    0.0017: real time    0.0017
    --------------------------------------------
      LOOP:  cpu time    2.0436: real time    2.0442

 eigenvalue-minimisations  :  2610
 total energy-change (2. order) : 0.5729686E+00  (-0.4430630E-01)
 number of electron     165.0000027 magnetization 
 augmentation part       49.9064312 magnetization 

 Broyden mixing:
  rms(total) = 0.36512E+00    rms(broyden)= 0.36509E+00
  rms(prec ) = 0.46241E+00
  weight for this iteration     100.00

 eigenvalues of (default mixing * dielectric matrix)
  average eigenvalue GAMMA=   0.6721
  2.0888  0.9221  0.5206  0.5206  0.2603  0.2603  0.1321

 Free energy of the ion-electron system (eV)
  ---------------------------------------------------
  alpha Z        PSCENC =       426.56989018
  Ewald energy   TEWEN  =     41495.32482747
  -Hartree energ DENC   =    -53993.00481025
  -exchange      EXHF   =         0.00000000
  -V(xc)+E(xc)   XCENC  =        64.75443212
  PAW double counting   =     14599.01580475   -14192.45864637
  entropy T*S    EENTRO =        -0.06523445
  eigenvalues    EBANDS =      -330.93240049
  atomic energy  EATOM  =     11825.39708547
  Solvation  Ediel_sol  =         0.00000000
  ---------------------------------------------------
  free energy    TOTEN  =      -105.39905157 eV

  energy without entropy =     -105.33381713  energy(sigma->0) =     -105.36643435


--------------------------------------------------------------------------------------------------------




--------------------------------------- Iteration      1(  13)  ---------------------------------------


    POTLOK:  cpu time    0.0244: real time    0.0244
    SETDIJ:  cpu time    0.0052: real time    0.0052
    EDDIAG:  cpu time    0.4020: real time    0.4020
  RMM-DIIS:  cpu time    1.4323: real time    1.4325
    ORTHCH:  cpu time    0.0664: real time    0.0666
       DOS:  cpu time    0.0004: real time    0.0004
    CHARGE:  cpu time    0.1140: real time    0.1141
    MIXING:  cpu time    0.0016: real time    0.0016
    --------------------------------------------
      LOOP:  cpu time    2.0462: real time    2.0467

 eigenvalue-minimisations  :  2654
 total energy-change (2. order) : 0.7350369E-01  (-0.1418339E-01)
 number of electron     165.0000029 magnetization 
 augmentation part       49.8753896 magnetization 

 Broyden mixing:
  rms(total) = 0.27234E+00    rms(broyden)= 0.27233E+00
  rms(prec ) = 0.30281E+00
  weight for this iteration     100.00

 eigenvalues of (default mixing * dielectric matrix)
  average eigenvalue GAMMA=   0.7489
  2.2499  0.9771  0.9771  0.7863  0.3171  0.2760  0.2760  0.1317

 Free energy of the ion-electron system (eV)
  ---------------------------------------------------
  alpha Z        PSCENC =       426.56989018
  Ewald energy   TEWEN  =     41495.32482747
  -Hartree energ DENC   =    -53993.47536469
  -exchange      EXHF   =         0.00000000
  -V(xc)+E(xc)   XCENC  =        64.81867239
  PAW double counting   =     14580.21933200   -14173.28572535
  entropy T*S    EENTRO =        -0.06184173
  eigenvalues    EBANDS =      -330.83242363
  atomic energy  EATOM  =     11825.39708547
  Solvation  Ediel_sol  =         0.00000000
  ---------------------------------------------------
  free energy    TOTEN  =      -105.32554789 eV

  energy without entropy =     -105.26370616  energy(sigma->0) =     -105.29462702


--------------------------------------------------------------------------------------------------------




--------------------------------------- Iteration      1(  14)  ---------------------------------------


    POTLOK:  cpu time    0.0233: real time    0.0234
    SETDIJ:  cpu time    0.0049: real time    0.0049
    EDDIAG:  cpu time    0.4042: real time    0.4042
  RMM-DIIS:  cpu time    1.4257: real time    1.4260
    ORTHCH:  cpu time    0.0667: real time    0.0667
       DOS:  cpu time    0.0004: real time    0.0004
    CHARGE:  cpu time    0.1145: real time    0.1145
    MIXING:  cpu time    0.0017: real time    0.0017
    --------------------------------------------
      LOOP:  cpu time    2.0413: real time    2.0418

 eigenvalue-minimisations  :  2610
 total energy-change (2. order) : 0.2218487E-01  (-0.5086966E-02)
 number of electron     165.0000027 magnetization 
 augmentation part       49.8647707 magnetization 

 Broyden mixing:
  rms(total) = 0.17019E+00    rms(broyden)= 0.17018E+00
  rms(prec ) = 0.18174E+00
  weight for this iteration     100.00

 eigenvalues of (default mixing * dielectric matrix)
  average eigenvalue GAMMA=   0.8039
  2.3450  1.3352  1.3352  0.7618  0.4708  0.1317  0.2803  0.2803  0.2944

 Free energy of the ion-electron system (eV)
  ---------------------------------------------------
  alpha Z        PSCENC =       426.56989018
  Ewald energy   TEWEN  =     41495.32482747
  -Hartree energ DENC   =    -53997.63925932
  -exchange      EXHF   =         0.00000000
  -V(xc)+E(xc)   XCENC  =        64.83376939
  PAW double counting   =     14607.23939332   -14200.48122688
  entropy T*S    EENTRO =        -0.06460991
  eigenvalues    EBANDS =      -326.48323274
  atomic energy  EATOM  =     11825.39708547
  Solvation  Ediel_sol  =         0.00000000
  ---------------------------------------------------
  free energy    TOTEN  =      -105.30336302 eV

  energy without entropy =     -105.23875311  energy(sigma->0) =     -105.27105806


--------------------------------------------------------------------------------------------------------




--------------------------------------- Iteration      1(  15)  ---------------------------------------


    POTLOK:  cpu time    0.0232: real time    0.0233
    SETDIJ:  cpu time    0.0050: real time    0.0050
    EDDIAG:  cpu time    0.4004: real time    0.4004
  RMM-DIIS:  cpu time    1.4137: real time    1.4143
    ORTHCH:  cpu time    0.0668: real time    0.0668
       DOS:  cpu time    0.0004: real time    0.0004
    CHARGE:  cpu time    0.1136: real time    0.1136
    MIXING:  cpu time    0.0018: real time    0.0018
    --------------------------------------------
      LOOP:  cpu time    2.0249: real time    2.0256

 eigenvalue-minimisations  :  2612
 total energy-change (2. order) : 0.1499594E-02  (-0.3860586E-02)
 number of electron     165.0000027 magnetization 
 augmentation part       49.8361772 magnetization 

 Broyden mixing:
  rms(total) = 0.16405E+00    rms(broyden)= 0.16405E+00
  rms(prec ) = 0.17991E+00
  weight for this iteration     100.00

 eigenvalues of (default mixing * dielectric matrix)
  average eigenvalue GAMMA=   0.8272
  2.4991  1.5850  1.5850  0.5682  0.5306  0.5306  0.1317  0.2760  0.2760  0.2895

 Free energy of the ion-electron system (eV)
  ---------------------------------------------------
  alpha Z        PSCENC =       426.56989018
  Ewald energy   TEWEN  =     41495.32482747
  -Hartree energ DENC   =    -54003.55500502
  -exchange      EXHF   =         0.00000000
  -V(xc)+E(xc)   XCENC  =        64.91207866
  PAW double counting   =     14602.37137489   -14195.33669897
  entropy T*S    EENTRO =        -0.06398217
  eigenvalues    EBANDS =      -320.92143394
  atomic energy  EATOM  =     11825.39708547
  Solvation  Ediel_sol  =         0.00000000
  ---------------------------------------------------
  free energy    TOTEN  =      -105.30186343 eV

  energy without entropy =     -105.23788125  energy(sigma->0) =     -105.26987234


--------------------------------------------------------------------------------------------------------




--------------------------------------- Iteration      1(  16)  ---------------------------------------


    POTLOK:  cpu time    0.0233: real time    0.0234
    SETDIJ:  cpu time    0.0049: real time    0.0049
    EDDIAG:  cpu time    0.4024: real time    0.4024
  RMM-DIIS:  cpu time    1.4309: real time    1.4312
    ORTHCH:  cpu time    0.0667: real time    0.0667
       DOS:  cpu time    0.0004: real time    0.0004
    CHARGE:  cpu time    0.1143: real time    0.1143
    MIXING:  cpu time    0.0018: real time    0.0018
    --------------------------------------------
      LOOP:  cpu time    2.0447: real time    2.0452

 eigenvalue-minimisations  :  2624
 total energy-change (2. order) : 0.3461340E-02  (-0.2279956E-02)
 number of electron     165.0000027 magnetization 
 augmentation part       49.8069545 magnetization 

 Broyden mixing:
  rms(total) = 0.13117E+00    rms(broyden)= 0.13117E+00
  rms(prec ) = 0.14669E+00
  weight for this iteration     100.00

 eigenvalues of (default mixing * dielectric matrix)
  average eigenvalue GAMMA=   0.7827
  2.0353  1.6933  1.6933  0.6485  0.6485  0.6110  0.1317  0.2789  0.2789  0.3083
  0.2823

 Free energy of the ion-electron system (eV)
  ---------------------------------------------------
  alpha Z        PSCENC =       426.56989018
  Ewald energy   TEWEN  =     41495.32482747
  -Hartree energ DENC   =    -54009.59153268
  -exchange      EXHF   =         0.00000000
  -V(xc)+E(xc)   XCENC  =        64.99456644
  PAW double counting   =     14585.74994596   -14178.31862078
  entropy T*S    EENTRO =        -0.06855089
  eigenvalues    EBANDS =      -315.35601325
  atomic energy  EATOM  =     11825.39708547
  Solvation  Ediel_sol  =         0.00000000
  ---------------------------------------------------
  free energy    TOTEN  =      -105.29840209 eV

  energy without entropy =     -105.22985119  energy(sigma->0) =     -105.26412664


--------------------------------------------------------------------------------------------------------




--------------------------------------- Iteration      1(  17)  ---------------------------------------


    POTLOK:  cpu time    0.0233: real time    0.0234
    SETDIJ:  cpu time    0.0048: real time    0.0048
    EDDIAG:  cpu time    0.3998: real time    0.3998
  RMM-DIIS:  cpu time    1.4355: real time    1.4360
    ORTHCH:  cpu time    0.0668: real time    0.0668
       DOS:  cpu time    0.0003: real time    0.0003
    CHARGE:  cpu time    0.1137: real time    0.1137
    MIXING:  cpu time    0.0019: real time    0.0019
    --------------------------------------------
      LOOP:  cpu time    2.0461: real time    2.0466

 eigenvalue-minimisations  :  2635
 total energy-change (2. order) : 0.9473025E-02  (-0.1089716E-02)
 number of electron     165.0000028 magnetization 
 augmentation part       49.7974117 magnetization 

 Broyden mixing:
  rms(total) = 0.65145E-01    rms(broyden)= 0.65139E-01
  rms(prec ) = 0.77368E-01
  weight for this iteration     100.00

 eigenvalues of (default mixing * dielectric matrix)
  average eigenvalue GAMMA=   0.7971
  2.1593  1.6632  1.6632  0.8776  0.8776  0.6811  0.1317  0.3989  0.2759  0.2759
  0.3114  0.2499

 Free energy of the ion-electron system (eV)
  ---------------------------------------------------
  alpha Z        PSCENC =       426.56989018
  Ewald energy   TEWEN  =     41495.32482747
  -Hartree energ DENC   =    -54010.05581588
  -exchange      EXHF   =         0.00000000
  -V(xc)+E(xc)   XCENC  =        65.01723319
  PAW double counting   =     14573.70239932   -14166.10915969
  entropy T*S    EENTRO =        -0.06668430
  eigenvalues    EBANDS =      -315.06870481
  atomic energy  EATOM  =     11825.39708547
  Solvation  Ediel_sol  =         0.00000000
  ---------------------------------------------------
  free energy    TOTEN  =      -105.28892906 eV

  energy without entropy =     -105.22224476  energy(sigma->0) =     -105.25558691


--------------------------------------------------------------------------------------------------------




--------------------------------------- Iteration      1(  18)  ---------------------------------------


    POTLOK:  cpu time    0.0234: real time    0.0235
    SETDIJ:  cpu time    0.0050: real time    0.0050
    EDDIAG:  cpu time    0.4101: real time    0.4101
  RMM-DIIS:  cpu time    1.4149: real time    1.4153
    ORTHCH:  cpu time    0.0666: real time    0.0667
       DOS:  cpu time    0.0004: real time    0.0004
    CHARGE:  cpu time    0.1151: real time    0.1151
    MIXING:  cpu time    0.0023: real time    0.0023
    --------------------------------------------
      LOOP:  cpu time    2.0377: real time    2.0382

 eigenvalue-minimisations  :  2619
 total energy-change (2. order) : 0.4840046E-02  (-0.6408336E-03)
 number of electron     165.0000028 magnetization 
 augmentation part       49.8013802 magnetization 

 Broyden mixing:
  rms(total) = 0.26783E-01    rms(broyden)= 0.26777E-01
  rms(prec ) = 0.35704E-01
  weight for this iteration     100.00

 eigenvalues of (default mixing * dielectric matrix)
  average eigenvalue GAMMA=   0.8057
  2.1866  1.6722  1.6722  1.0317  1.0317  0.6248  0.6248  0.1317  0.3973  0.2769
  0.2769  0.3016  0.2460

 Free energy of the ion-electron system (eV)
  ---------------------------------------------------
  alpha Z        PSCENC =       426.56989018
  Ewald energy   TEWEN  =     41495.32482747
  -Hartree energ DENC   =    -54011.51373650
  -exchange      EXHF   =         0.00000000
  -V(xc)+E(xc)   XCENC  =        65.01472854
  PAW double counting   =     14575.19839777   -14167.64306141
  entropy T*S    EENTRO =        -0.06639849
  eigenvalues    EBANDS =      -313.56582203
  atomic energy  EATOM  =     11825.39708547
  Solvation  Ediel_sol  =         0.00000000
  ---------------------------------------------------
  free energy    TOTEN  =      -105.28408901 eV

  energy without entropy =     -105.21769052  energy(sigma->0) =     -105.25088977


--------------------------------------------------------------------------------------------------------




--------------------------------------- Iteration      1(  19)  ---------------------------------------


    POTLOK:  cpu time    0.0242: real time    0.0243
    SETDIJ:  cpu time    0.0052: real time    0.0052
    EDDIAG:  cpu time    0.4006: real time    0.4006
  RMM-DIIS:  cpu time    1.4772: real time    1.4776
    ORTHCH:  cpu time    0.0666: real time    0.0666
       DOS:  cpu time    0.0004: real time    0.0004
    CHARGE:  cpu time    0.1136: real time    0.1136
    MIXING:  cpu time    0.0020: real time    0.0020
    --------------------------------------------
      LOOP:  cpu time    2.0898: real time    2.0904

 eigenvalue-minimisations  :  2698
 total energy-change (2. order) : 0.6894940E-03  (-0.2043256E-03)
 number of electron     165.0000028 magnetization 
 augmentation part       49.7979763 magnetization 

 Broyden mixing:
  rms(total) = 0.21559E-01    rms(broyden)= 0.21558E-01
  rms(prec ) = 0.24378E-01
  weight for this iteration     100.00

 eigenvalues of (default mixing * dielectric matrix)
  average eigenvalue GAMMA=   0.8637
  2.0920  2.0920  1.4580  1.3216  1.3216  0.7481  0.7481  0.6913  0.1317  0.3869
  0.2767  0.2767  0.3012  0.2455

 Free energy of the ion-electron system (eV)
  ---------------------------------------------------
  alpha Z        PSCENC =       426.56989018
  Ewald energy   TEWEN  =     41495.32482747
  -Hartree energ DENC   =    -54013.53154434
  -exchange      EXHF   =         0.00000000
  -V(xc)+E(xc)   XCENC  =        65.01982909
  PAW double counting   =     14575.25542845   -14167.70644906
  entropy T*S    EENTRO =        -0.06563591
  eigenvalues    EBANDS =      -311.54683087
  atomic energy  EATOM  =     11825.39708547
  Solvation  Ediel_sol  =         0.00000000
  ---------------------------------------------------
  free energy    TOTEN  =      -105.28339952 eV

  energy without entropy =     -105.21776361  energy(sigma->0) =     -105.25058157


--------------------------------------------------------------------------------------------------------




--------------------------------------- Iteration      1(  20)  ---------------------------------------


    POTLOK:  cpu time    0.0235: real time    0.0236
    SETDIJ:  cpu time    0.0049: real time    0.0049
    EDDIAG:  cpu time    0.4029: real time    0.4029
  RMM-DIIS:  cpu time    1.4968: real time    1.4973
    ORTHCH:  cpu time    0.0665: real time    0.0665
       DOS:  cpu time    0.0004: real time    0.0004
    CHARGE:  cpu time    0.1145: real time    0.1145
    MIXING:  cpu time    0.0022: real time    0.0022
    --------------------------------------------
      LOOP:  cpu time    2.1118: real time    2.1123

 eigenvalue-minimisations  :  2775
 total energy-change (2. order) : 0.3144562E-03  (-0.7292487E-04)
 number of electron     165.0000028 magnetization 
 augmentation part       49.7958779 magnetization 

 Broyden mixing:
  rms(total) = 0.11994E-01    rms(broyden)= 0.11994E-01
  rms(prec ) = 0.15977E-01
  weight for this iteration     100.00

 eigenvalues of (default mixing * dielectric matrix)
  average eigenvalue GAMMA=   0.8769
  2.0864  2.0864  1.7332  1.3491  1.3491  0.8213  0.8213  0.7082  0.5754  0.1317
  0.3909  0.2767  0.2767  0.3016  0.2459

 Free energy of the ion-electron system (eV)
  ---------------------------------------------------
  alpha Z        PSCENC =       426.56989018
  Ewald energy   TEWEN  =     41495.32482747
  -Hartree energ DENC   =    -54016.04636946
  -exchange      EXHF   =         0.00000000
  -V(xc)+E(xc)   XCENC  =        65.03185221
  PAW double counting   =     14571.78522030   -14164.20577197
  entropy T*S    EENTRO =        -0.06553033
  eigenvalues    EBANDS =      -309.07428893
  atomic energy  EATOM  =     11825.39708547
  Solvation  Ediel_sol  =         0.00000000
  ---------------------------------------------------
  free energy    TOTEN  =      -105.28308506 eV

  energy without entropy =     -105.21755473  energy(sigma->0) =     -105.25031990


--------------------------------------------------------------------------------------------------------




--------------------------------------- Iteration      1(  21)  ---------------------------------------


    POTLOK:  cpu time    0.0234: real time    0.0235
    SETDIJ:  cpu time    0.0049: real time    0.0049
    EDDIAG:  cpu time    0.4011: real time    0.4012
  RMM-DIIS:  cpu time    1.4317: real time    1.4321
    ORTHCH:  cpu time    0.0666: real time    0.0666
       DOS:  cpu time    0.0004: real time    0.0004
    CHARGE:  cpu time    0.1134: real time    0.1134
    MIXING:  cpu time    0.0022: real time    0.0022
    --------------------------------------------
      LOOP:  cpu time    2.0438: real time    2.0443

 eigenvalue-minimisations  :  2643
 total energy-change (2. order) : 0.7593676E-04  (-0.3113034E-04)
 number of electron     165.0000028 magnetization 
 augmentation part       49.7973729 magnetization 

 Broyden mixing:
  rms(total) = 0.68364E-02    rms(broyden)= 0.68360E-02
  rms(prec ) = 0.93041E-02
  weight for this iteration     100.00

 eigenvalues of (default mixing * dielectric matrix)
  average eigenvalue GAMMA=   0.8770
  2.2082  2.2082  1.5247  1.5247  1.1648  0.8936  0.8936  0.7589  0.7589  0.1317
  0.4719  0.3916  0.2767  0.2767  0.3016  0.2459

 Free energy of the ion-electron system (eV)
  ---------------------------------------------------
  alpha Z        PSCENC =       426.56989018
  Ewald energy   TEWEN  =     41495.32482747
  -Hartree energ DENC   =    -54017.47490765
  -exchange      EXHF   =         0.00000000
  -V(xc)+E(xc)   XCENC  =        65.03537310
  PAW double counting   =     14572.32874771   -14164.76911921
  entropy T*S    EENTRO =        -0.06556234
  eigenvalues    EBANDS =      -307.62934385
  atomic energy  EATOM  =     11825.39708547
  Solvation  Ediel_sol  =         0.00000000
  ---------------------------------------------------
  free energy    TOTEN  =      -105.28300913 eV

  energy without entropy =     -105.21744679  energy(sigma->0) =     -105.25022796


--------------------------------------------------------------------------------------------------------




--------------------------------------- Iteration      1(  22)  ---------------------------------------


    POTLOK:  cpu time    0.0235: real time    0.0235
    SETDIJ:  cpu time    0.0048: real time    0.0048
    EDDIAG:  cpu time    0.4025: real time    0.4026
  RMM-DIIS:  cpu time    1.4937: real time    1.4939
    ORTHCH:  cpu time    0.0668: real time    0.0668
       DOS:  cpu time    0.0004: real time    0.0004
    CHARGE:  cpu time    0.1145: real time    0.1145
    MIXING:  cpu time    0.0024: real time    0.0024
    --------------------------------------------
      LOOP:  cpu time    2.1084: real time    2.1089

[...]
     98       6.3843      0.00000
     99       6.6032      0.00000
    100       6.9706      0.00000

 k-point    13 :      -0.2000    0.4000    0.0000
  band No.  band energies     occupation 
      1     -10.8302      2.00000
      2      -5.9069      2.00000
      3      -5.8034      2.00000
      4      -5.5141      2.00000
      5      -5.0853      2.00000
      6      -4.7971      2.00000
      7      -4.6336      2.00000
      8      -4.3623      2.00000
      9      -4.1183      2.00000
     10      -3.9624      2.00000
     11      -3.8885      2.00000
     12      -3.8132      2.00000
     13      -3.7463      2.00000
     14      -3.7102      2.00000
     15      -3.6441      2.00000
     16      -3.5438      2.00000
     17      -3.5026      2.00000
     18      -3.3861      2.00000
     19      -3.3064      2.00000
     20      -3.2580      2.00000
     21      -3.2295      2.00000
     22      -3.1597      2.00000
     23      -3.0851      2.00000
     24      -3.0105      2.00000
     25      -2.9061      2.00000
     26      -2.8830      2.00000
     27      -2.8594      2.00000
     28      -2.7978      2.00000
     29      -2.7437      2.00000
     30      -2.7386      2.00000
     31      -2.6430      2.00000
     32      -2.5372      2.00000
     33      -2.3961      2.00000
     34      -2.2989      2.00000
     35      -2.2567      2.00000
     36      -2.1797      2.00000
     37      -2.1420      2.00000
     38      -2.0708      2.00000
     39      -2.0299      2.00000
     40      -2.0068      2.00000
     41      -1.9287      2.00000
     42      -1.9199      2.00000
     43      -1.8995      2.00000
     44      -1.7741      2.00000
     45      -1.6511      2.00000
     46      -1.5966      2.00000
     47      -1.4050      2.00000
     48      -1.3684      2.00000
     49      -1.3285      2.00000
     50      -1.2080      2.00000
     51      -1.1938      2.00000
     52      -1.1693      2.00000
     53      -1.0190      2.00000
     54      -0.8045      2.00000
     55      -0.7222      2.00000
     56      -0.6923      2.00000
     57      -0.6413      2.00000
     58      -0.5687      2.00000
     59      -0.4755      2.00000
     60      -0.4542      2.00000
     61      -0.2979      2.00000
     62      -0.2832      2.00000
     63      -0.2124      2.00000
     64      -0.1290      2.00000
     65      -0.0294      2.00000
     66       0.0440      2.00000
     67       0.0939      2.00000
     68       0.1664      2.00000
     69       0.2417      2.00000
     70       0.3472      2.00000
     71       0.3784      2.00000
     72       0.3943      2.00000
     73       0.4216      2.00000
     74       0.5053      2.00000
     75       0.7229      2.00000
     76       0.7575      2.00000
     77       0.8635      2.00000
     78       0.9228      2.00000
     79       0.9702      2.00000
     80       1.1054      2.00000
     81       1.1962      1.99999
     82       1.2530      1.99994
     83       1.3177      1.99922
     84       1.4088      1.97039
     85       1.4783      1.61074
     86       1.6331      0.01679
     87       1.8399      0.00000
     88       1.8877      0.00000
     89       1.9270      0.00000
     90       2.4982      0.00000
     91       2.9539      0.00000
     92       3.6899      0.00000
     93       4.1863      0.00000
     94       4.7474      0.00000
     95       4.9921      0.00000
     96       5.3895      0.00000
     97       6.2548      0.00000
     98       6.3850      0.00000
     99       6.6045      0.00000
    100       6.9702      0.00000


--------------------------------------------------------------------------------------------------------


 soft charge-density along one line, spin component           1
         0         1         2         3         4         5         6         7         8         9
 total charge-density along one line
 
 pseudopotential strength for first ion, spin component:           1
 -6.035   0.004  -0.000  -0.009  -0.000  -6.151   0.004  -0.000
  0.004  -5.910   0.001  -0.001  -0.014   0.004  -6.029   0.001
 -0.000   0.001  -5.904   0.003  -0.000  -0.000   0.001  -6.023
 -0.009  -0.001   0.003  -5.911   0.004  -0.009  -0.001   0.003
 -0.000  -0.014  -0.000   0.004  -6.035  -0.000  -0.013  -0.000
 -6.151   0.004  -0.000  -0.009  -0.000  -6.250   0.003  -0.000
  0.004  -6.029   0.001  -0.001  -0.013   0.003  -6.131   0.001
 -0.000   0.001  -6.023   0.003  -0.000  -0.000   0.001  -6.126
 -0.009  -0.001   0.003  -6.030   0.004  -0.009  -0.001   0.002
 -0.000  -0.013  -0.000   0.004  -6.151  -0.000  -0.013  -0.000
  0.000  -0.001  -0.038  -0.002   0.000   0.000  -0.001  -0.037
  0.000  -0.002  -0.055  -0.003   0.000   0.000  -0.002  -0.054
  0.000  -0.003  -0.000  -0.000   0.000   0.000  -0.003  -0.000
 -0.000   0.000  -0.007   0.000  -0.000  -0.000   0.000  -0.007
  0.000  -0.000  -0.000  -0.003   0.000   0.000  -0.000  -0.000
  0.000  -0.002   0.000  -0.000   0.001   0.000  -0.001   0.000
 -0.000   0.000  -0.007   0.000  -0.000  -0.000   0.000  -0.007
  0.001  -0.000   0.000  -0.002   0.000   0.001  -0.000   0.000
 total augmentation occupancy for first ion, spin component:           1
  2.984   0.024  -0.023  -0.216  -0.014  -1.905  -0.013   0.016   0.043   0.010   0.002   0.002  -0.001   0.002  -0.046   0.000
  0.024   4.000   0.016  -0.043  -0.244  -0.012  -2.150  -0.008   0.032   0.066   0.016  -0.005  -0.250  -0.001   0.002   0.012
 -0.023   0.016   4.137   0.028  -0.013   0.017  -0.008  -2.552  -0.015   0.010   0.815  -0.141   0.003  -0.304   0.006  -0.000
 -0.216  -0.043   0.028   3.950   0.024   0.052   0.032  -0.014  -2.113  -0.012   0.028  -0.009   0.002  -0.002  -0.248  -0.000
 -0.014  -0.244  -0.013   0.024   3.000   0.010   0.058   0.009  -0.013  -1.917   0.001   0.001  -0.045   0.001  -0.001   0.003
 -1.905  -0.012   0.017   0.052   0.010   2.451   0.005  -0.012   0.074  -0.008  -0.003  -0.001   0.001  -0.001   0.048  -0.000
 -0.013  -2.150  -0.008   0.032   0.058   0.005   2.147   0.003  -0.027   0.068  -0.011   0.001   0.241  -0.000  -0.001  -0.016
  0.016  -0.008  -2.552  -0.014   0.009  -0.012   0.003   2.734   0.005  -0.007  -0.676   0.085  -0.004   0.363  -0.006   0.000
  0.043   0.032  -0.015  -2.113  -0.013   0.074  -0.027   0.005   2.116   0.005  -0.019   0.003  -0.001  -0.000   0.240  -0.000
  0.010   0.066   0.010  -0.012  -1.917  -0.008   0.068  -0.007   0.005   2.461  -0.002  -0.000   0.046  -0.001   0.001  -0.003
  0.002   0.016   0.815   0.028   0.001  -0.003  -0.011  -0.676  -0.019  -0.002   2.247  -0.448   0.000   0.186   0.001  -0.000
  0.002  -0.005  -0.141  -0.009   0.001  -0.001   0.001   0.085   0.003  -0.000  -0.448   0.111  -0.000  -0.065  -0.000   0.000
 -0.001  -0.250   0.003   0.002  -0.045   0.001   0.241  -0.004  -0.001   0.046   0.000  -0.000   0.259  -0.001   0.000  -0.014
  0.002  -0.001  -0.304  -0.002   0.001  -0.001  -0.000   0.363  -0.000  -0.001   0.186  -0.065  -0.001   0.147  -0.001   0.000
 -0.046   0.002   0.006  -0.248  -0.001   0.048  -0.001  -0.006   0.240   0.001   0.001  -0.000   0.000  -0.001   0.259  -0.000
  0.000   0.012  -0.000  -0.000   0.003  -0.000  -0.016   0.000  -0.000  -0.003  -0.000   0.000  -0.014   0.000  -0.000   0.001
  0.000   0.000   0.004   0.000   0.000  -0.000  -0.000  -0.019  -0.000  -0.000  -0.018   0.005   0.000  -0.009   0.000  -0.000
  0.003  -0.000  -0.000   0.012   0.000  -0.003  -0.000   0.000  -0.016  -0.000  -0.000   0.000  -0.000   0.000  -0.014   0.000


------------------------ aborting loop because EDIFF is reached ----------------------------------------


    CHARGE:  cpu time    0.1134: real time    0.1135
    FORLOC:  cpu time    0.0053: real time    0.0053
    FORNL :  cpu time    0.6313: real time    0.6315
    STRESS:  cpu time    1.8914: real time    1.8918
    FORCOR:  cpu time    0.0300: real time    0.0300
    FORHAR:  cpu time    0.0099: real time    0.0099
    MIXING:  cpu time    0.0015: real time    0.0015
    OFIELD:  cpu time    0.0000: real time    0.0000

  Hirshfeld-DOM and Hirshfeld charges and relative Volumes:   
            ion         q(e)           q(e)           rel_vol 
   -----------------------------------------------------------
      1     Pt         -0.025         -0.021          0.983
      2     Pt         -0.028         -0.022          0.987
      3     Pt         -0.025         -0.020          0.983
      4     Pt         -0.025         -0.020          0.983
      5     Pt          0.022          0.016          0.924
      6     Pt          0.030          0.026          0.926
      7     Pt          0.022          0.015          0.925
      8     Pt          0.021          0.015          0.926
      9     Pt          0.014          0.012          0.930
     10     Pt         -0.032         -0.022          0.938
     11     Pt          0.013          0.012          0.931
     12     Pt          0.014          0.012          0.930
     13     Pt          0.057          0.051          0.961
     14     Pt         -0.023         -0.016          0.978
     15     Pt          0.047          0.051          0.970
     16     Pt          0.052          0.051          0.964
     17     C          -0.214         -0.187          0.813
     18     H           0.080          0.048          0.656

  dDsC method for vdW energy calculation
  ---------------------------------------------------------------------------------------------

  Parameters of vdW forcefield:
            C6dDsC            XDM            ALPHAts        RELVOL
            (au)              (au)            (au)                
   ---------------------------------------------------------------
   Pt        509.336         15.612         38.988          0.983
   Pt        515.801         15.746         39.148          0.987
   Pt        509.704         15.616         39.006          0.983
   Pt        509.688         15.616         39.007          0.983
   Pt        403.981         13.164         36.675          0.924
   Pt        402.896         13.100         36.754          0.926
   Pt        404.623         13.170         36.717          0.925
   Pt        404.833         13.170         36.736          0.926
   Pt        408.172         13.219         36.902          0.930
   Pt        414.818         13.316         37.227          0.938
   Pt        409.192         13.231         36.959          0.931
   Pt        408.408         13.225         36.907          0.930
   Pt        475.528         14.909         38.116          0.961
   Pt        500.943         15.433         38.791          0.978
   Pt        482.625         14.990         38.476          0.970
   Pt        478.400         14.941         38.266          0.964
   C          43.656          5.348          9.755          0.813
   H           3.780          1.531          2.950          0.656

  Number of pair interactions contributing to vdW energy:  150709
  Edisp (eV):   -4.93926
    FORVDW:  cpu time    0.4130: real time    0.4136

  FORCE on cell =-STRESS in cart. coord.  units (eV):
  Direction    XX          YY          ZZ          XY          YZ          ZX
  --------------------------------------------------------------------------------------
  Alpha Z   426.56989   426.56989   426.56989
  Ewald   50578.51988 50578.35499-59464.35838     0.00513    -0.12018    -0.30562
  Hartree 53456.83391 53456.74924-52694.18688     0.02911    -0.05698    -0.12695
  E(xc)    -726.10637  -726.10660  -730.52060    -0.00028    -0.00061    -0.00164
  Local  ************************109102.67082    -0.03936     0.16638     0.39036
  n-local    67.92325    67.92046    70.53003    -0.00631    -0.00084    -0.00921
  augment   834.54638   834.55036   857.30769     0.00396     0.00306     0.01612
  Kinetic  2375.96972  2375.97686  2436.05596     0.00819     0.01092     0.03560
  Fock        0.00000     0.00000     0.00000     0.00000     0.00000     0.00000
  vdW        -5.94108    -6.04196    -4.21476     0.08717    -0.00360    -0.00580
  -------------------------------------------------------------------------------------
  Total     -19.65275   -19.75817    -0.14624     0.08760    -0.00185    -0.00714
  in kB     -52.72536   -53.00819    -0.39233     0.23502    -0.00496    -0.01915
  external pressure =      -35.38 kB  Pullay stress =        0.00 kB


 VOLUME and BASIS-vectors are now :
 -----------------------------------------------------------------------------
  energy-cutoff  :      400.00
  volume of cell :      597.19
      direct lattice vectors                 reciprocal lattice vectors
     5.614427843  0.000000000  0.000000000     0.178112539 -0.102833323  0.000000000
     2.807213921  4.862237139  0.000000000     0.000000000  0.205666645  0.000000000
     0.000000000  0.000000000 21.876241710     0.000000000  0.000000000  0.045711691

  length of vectors
     5.614427843  5.614427842 21.876241710     0.205666645  0.205666645  0.045711691


 FORCES acting on ions
    electron-ion (+dipol)            ewald-force                    non-local-force                 convergence-correction
 -----------------------------------------------------------------------------------------------
   0.434E+00 0.265E+00 0.234E+04   -.439E+00 -.268E+00 -.234E+04   0.273E-01 0.160E-01 -.126E+01   -.184E-03 0.184E-04 -.526E-02
   0.572E+00 0.304E+00 0.235E+04   -.564E+00 -.299E+00 -.235E+04   -.209E-01 -.114E-01 -.113E+01   0.308E-03 -.554E-04 -.462E-02
   -.504E+00 -.259E+00 0.234E+04   0.505E+00 0.253E+00 -.234E+04   -.217E-01 0.250E-01 -.126E+01   0.183E-03 -.160E-03 -.512E-02
   -.527E+00 -.309E+00 0.234E+04   0.520E+00 0.314E+00 -.234E+04   0.139E-01 -.319E-01 -.126E+01   -.344E-03 0.175E-03 -.513E-02
   -.122E+01 -.698E+00 0.846E+03   0.126E+01 0.719E+00 -.846E+03   -.440E-01 -.260E-01 -.269E+00   0.214E-02 0.120E-02 -.745E-01
   0.692E-01 0.257E-01 0.841E+03   -.683E-01 -.254E-01 -.840E+03   -.163E-02 -.732E-03 -.794E+00   0.677E-04 0.550E-04 -.765E-01
   0.123E+01 -.766E+00 0.847E+03   -.126E+01 0.786E+00 -.846E+03   0.436E-01 -.239E-01 -.263E+00   -.210E-02 0.104E-02 -.744E-01
   -.601E-01 0.144E+01 0.847E+03   0.596E-01 -.148E+01 -.846E+03   0.168E-02 0.496E-01 -.264E+00   -.151E-03 -.234E-02 -.745E-01
   0.231E+01 0.136E+01 -.666E+03   -.225E+01 -.133E+01 0.665E+03   -.745E-01 -.444E-01 0.619E+00   -.102E-02 -.550E-03 -.727E-01
   -.486E+00 -.294E+00 -.683E+03   0.486E+00 0.293E+00 0.685E+03   0.162E-01 0.121E-01 -.140E+01   -.174E-03 -.123E-03 -.709E-01
   -.221E+01 0.170E+01 -.666E+03   0.215E+01 -.167E+01 0.666E+03   0.608E-01 -.488E-01 0.607E+00   0.100E-02 -.434E-03 -.731E-01
   0.370E+00 -.278E+01 -.666E+03   -.367E+00 0.271E+01 0.666E+03   -.143E-01 0.782E-01 0.610E+00   0.108E-03 0.109E-02 -.731E-01
   0.597E+02 0.345E+02 -.217E+04   -.590E+02 -.340E+02 0.217E+04   -.730E+00 -.422E+00 -.234E+01   0.136E-03 0.866E-04 -.265E-02
   -.625E+00 -.309E+00 -.215E+04   0.619E+00 0.306E+00 0.215E+04   0.252E-01 0.121E-01 0.157E+01   0.266E-03 0.133E-03 -.537E-02
   -.597E+02 0.349E+02 -.217E+04   0.590E+02 -.345E+02 0.217E+04   0.723E+00 -.434E+00 -.234E+01   -.340E-04 -.688E-04 -.231E-02
   0.453E+00 -.691E+02 -.217E+04   -.450E+00 0.683E+02 0.217E+04   -.161E-01 0.845E+00 -.234E+01   -.108E-03 -.826E-05 -.235E-02
   0.860E-01 0.380E-01 -.110E+04   -.821E-01 -.353E-01 0.110E+04   0.673E-03 -.614E-04 -.167E+01   -.532E-04 -.342E-04 0.721E-02
   0.324E-01 0.247E-01 -.296E+03   -.355E-01 -.271E-01 0.302E+03   0.285E-02 0.275E-02 -.565E+01   -.428E-05 -.207E-05 0.253E-02
 -----------------------------------------------------------------------------------------------
   0.308E-02 0.165E-02 0.193E+02   0.705E-13 0.798E-14 0.261E-11   -.820E-02 -.198E-02 -.188E+02   0.393E-04 0.140E-04 -.613E+00
 
 
 POSITION                                       TOTAL-FORCE (eV/Angst)
 -----------------------------------------------------------------------------------
      0.00161      0.00093      7.51469        -0.000586     -0.000131     -0.000340
      4.21168      2.43164      7.49812        -0.018176      0.006775      0.003819
      2.80442      0.00081      7.51443        -0.005985     -0.006051     -0.001541
      1.40257      2.42847      7.51445         0.021951     -0.002398     -0.001586
      5.61476      3.24156      9.79560        -0.024174     -0.014613     -0.002970
      1.40377      0.81030      9.81713         0.017338      0.009886     -0.007576
      2.80691      3.24157      9.79507         0.017420     -0.022010     -0.002663
      4.21085      0.80984      9.79514        -0.009616      0.025628     -0.002721
      2.80156      1.61727     12.05929         0.001016     -0.000866      0.002522
      7.01694      4.05093     12.09853        -0.002309      0.000801     -0.011494
      5.62127      1.61716     12.06005        -0.004134      0.003740     -0.003070
      4.21151      4.05912     12.06000        -0.000227     -0.004781     -0.000532
      8.38986      4.84345     14.44754        -0.005855     -0.004184     -0.000473
      4.21022      2.43058     14.27896        -0.000457     -0.002343      0.003896
      5.64850      4.84392     14.44864         0.011221     -0.004169      0.003065
      7.01944      2.46899     14.44850         0.000493      0.013351      0.001984
      1.40392      0.81008     15.56017         0.002293      0.001115      0.014559
      1.40334      0.80956     16.65978        -0.000213      0.000249      0.005121
 -----------------------------------------------------------------------------------
    total drift:                               -0.005082     -0.000316     -0.128647


--------------------------------------------------------------------------------------------------------



  FREE ENERGIE OF THE ION-ELECTRON SYSTEM (eV)
  ---------------------------------------------------
  free  energy   TOTEN  =      -110.30226266 eV

  energy  without entropy=     -110.24220087  energy(sigma->0) =     -110.27223177
 
 d Force = 0.3283980E-04[ 0.198E-04, 0.458E-04]  d Energy =-0.3679180E-04 0.696E-04
 d Force =-0.9509758E+00[-0.951E+00,-0.951E+00]  d Ewald  =-0.9509759E+00 0.253E-07


--------------------------------------------------------------------------------------------------------


    POTLOK:  cpu time    0.0287: real time    0.0287


--------------------------------------------------------------------------------------------------------


 stress matrix after NEB project (eV)
    -19.65275      0.08760     -0.00714
      0.08760    -19.75817     -0.00185
     -0.00714     -0.00185     -0.14624
  FORCES: max atom, RMS     0.028403    0.016044
  FORCE total and by dimension    0.068067    0.025628
  Stress total and by dimension   27.868490   19.758172


--------------------------------------------------------------------------------------------------------


  
 reached required accuracy - stopping structural energy minimisation
     LOOP+:  cpu time   23.1517: real time   23.1610
    4ORBIT:  cpu time    0.0000: real time    0.0000

 total amount of memory used by VASP MPI-rank0    52920. kBytes
=======================================================================

   base      :      30000. kBytes
   nonlr-proj:       2041. kBytes
   fftplans  :       2234. kBytes
   grid      :       3967. kBytes
   one-center:         77. kBytes
   wavefun   :      14601. kBytes
 
  
  
 General timing and accounting informations for this job:
 ========================================================
  
                  Total CPU time used (sec):      637.220
                            User time (sec):      636.660
                          System time (sec):        0.560
                         Elapsed time (sec):      638.350
  
                   Maximum memory used (kb):      296784.
                   Average memory used (kb):          N/A
  
                          Minor page faults:       106591
                          Major page faults:         4069
                 Voluntary context switches:         3328
