|===============================================================================
|
|  DFTB+ release 22.2
|
|  Copyright (C) 2006 - 2022  DFTB+ developers group
|
|===============================================================================
|
|  When publishing results obtained with DFTB+, please cite the following
|  reference:
|
|  * DFTB+, a software package for efficient approximate density functional
|    theory based atomistic simulations, J. Chem. Phys. 152, 124101 (2020).
|    [doi: 10.1063/1.5143190]
|
|  You should also cite additional publications crediting the parametrization
|  data you use. Please consult the documentation of the SK-files for the
|  references.
|
|===============================================================================

Reading input file 'dftb_in.hsd'
Parser version: 12

--------------------------------------------------------------------------------
***  Converting input from parser version  6 to parser version 12 ...
WARNING!
-> Keyword renamed to 'Solver'.
Path: dftbplusinput/Hamiltonian/DFTB/Eigensolver
Line: 13-13 (File: dftb_in.hsd)

***  Done.

Reading SK-files:
../../../skf_files/Pt-Pt.skf
../../../skf_files/Pt-C.skf
../../../skf_files/Pt-O.skf
../../../skf_files/Pt-H.skf
../../../skf_files/C-C.skf
../../../skf_files/C-O.skf
../../../skf_files/C-H.skf
../../../skf_files/O-O.skf
../../../skf_files/O-H.skf
../../../skf_files/H-H.skf
Done.


Processed input in HSD format written to 'dftb_pin.hsd'

Starting initialization...
--------------------------------------------------------------------------------
WARNING!
-> Dipole printed for extended system : value printed is not well defined
OpenMP threads:              1
Chosen random seed:          2069923701
Mode:                        Static calculation
Self consistent charges:     Yes
SCC-tolerance:                 0.100000E-08
Max. scc iterations:                    100
Shell resolved Hubbard:      No
Spin polarisation:           No
Nr. of up electrons:            85.500000
Nr. of down electrons:          85.500000
Periodic boundaries:         Yes
Electronic solver:           Relatively robust
Mixer:                       Broyden mixer
Mixing parameter:                  0.200000
Maximal SCC-cycles:                     100
Nr. of chrg. vec. in memory:            100
Electronic temperature:              0.950045E-03 H      0.258520E-01 eV
Initial charges:             Set automatically (system chrg:   0.000E+00)
Included shells:            Pt:  s, p, d
                             C:  s, p
                             O:  s, p
                             H:  s
K-points and weights:           1:  0.000000  0.000000  0.000000     0.040000
                                2:  0.000000  0.200000  0.000000     0.080000
                                3:  0.000000  0.400000  0.000000     0.080000
                                4:  0.200000  0.000000  0.000000     0.080000
                                5:  0.200000  0.200000  0.000000     0.080000
                                6:  0.200000  0.400000  0.000000     0.080000
                                7:  0.200000  0.600000  0.000000     0.080000
                                8:  0.200000  0.800000  0.000000     0.080000
                                9:  0.400000  0.000000  0.000000     0.080000
                               10:  0.400000  0.200000  0.000000     0.080000
                               11:  0.400000  0.400000  0.000000     0.080000
                               12:  0.400000  0.600000  0.000000     0.080000
                               13:  0.400000  0.800000  0.000000     0.080000

K-points in absolute space:     1:  0.000000  0.000000  0.000000
                                2:  0.000000  0.018851  0.000000
                                3:  0.000000  0.037701  0.000000
                                4:  0.018851  0.000000  0.000000
                                5:  0.018851  0.018851  0.000000
                                6:  0.018851  0.037701  0.000000
                                7:  0.018851  0.056552  0.000000
                                8:  0.018851  0.075402  0.000000
                                9:  0.037701  0.000000  0.000000
                               10:  0.037701  0.018851  0.000000
                               11:  0.037701  0.037701  0.000000
                               12:  0.037701  0.056552  0.000000
                               13:  0.037701  0.075402  0.000000

Extra options:
                             Mulliken analysis
                             Force calculation
Force type                   original

--------------------------------------------------------------------------------

***  Geometry step: 0

 iSCC Total electronic   Diff electronic      SCC error    
    1    0.00000000E+00    0.00000000E+00    0.63238777E+00
    2   -0.42743038E+02   -0.42743038E+02    0.22975354E+01
    3   -0.28369088E+02    0.14373950E+02    0.14968860E+01
    4   -0.33515772E+02   -0.51466844E+01    0.29151561E+00
    5   -0.43231547E+02   -0.97157744E+01    0.19513830E+00
    6   -0.43304013E+02   -0.72465997E-01    0.79466069E-01
    7   -0.43303489E+02    0.52377385E-03    0.90742313E-01
    8   -0.43288495E+02    0.14993276E-01    0.37812527E-01
    9   -0.43308047E+02   -0.19551431E-01    0.18196701E-01
   10   -0.43309173E+02   -0.11258817E-02    0.46296451E-02
   11   -0.43309423E+02   -0.25007511E-03    0.20431865E-02
   12   -0.43309439E+02   -0.15664777E-04    0.25118793E-03
   13   -0.43309442E+02   -0.31158320E-05    0.19460991E-03
   14   -0.43309442E+02   -0.10508002E-06    0.24239878E-04
   15   -0.43309442E+02   -0.21951187E-06    0.58773654E-05
   16   -0.43309442E+02    0.28111543E-07    0.20222122E-05
   17   -0.43309442E+02    0.68356343E-09    0.61370364E-06
   18   -0.43309442E+02   -0.18934472E-08    0.61595845E-07
   19   -0.43309442E+02   -0.66204819E-09    0.37123581E-07
   20   -0.43309442E+02   -0.53283600E-10    0.77095859E-08
>> Charges saved for restart in charges.bin
   21   -0.43309442E+02   -0.16939339E-10    0.20216380E-08
   22   -0.43309442E+02   -0.41637804E-11    0.45060844E-10
>> Charges saved for restart in charges.bin

Total Energy:                      -44.8212880807 H        -1219.6493 eV
Extrapolated to 0K:                -44.8225652825 H        -1219.6841 eV
Total Mermin free energy:          -44.8238424843 H        -1219.7188 eV
Force related energy:              -44.8238424843 H        -1219.7188 eV

Volume:                              0.445754E+04 au^3   0.660539E+03 A^3
Pressure:                           -0.983019E-04 au    -0.289214E+10 Pa

--------------------------------------------------------------------------------
DFTB+ running times                          cpu [s]             wall clock [s]
--------------------------------------------------------------------------------
Pre-SCC initialisation                 +       0.01 (  0.1%)       0.01 (  0.1%)
SCC                                    +       7.29 ( 98.0%)       7.33 ( 98.0%)
Post-SCC processing                    +       0.13 (  1.8%)       0.13 (  1.8%)
--------------------------------------------------------------------------------
Missing                                +       0.00 (  0.1%)       0.01 (  0.1%)
Total                                  =       7.44 (100.0%)       7.48 (100.0%)
--------------------------------------------------------------------------------
